ITEM: TIMESTEP
200000
ITEM: NUMBER OF ATOMS
58368
ITEM: BOX BOUNDS xy xz yz pp pp pp
-3.9006362984379528e+01 4.3344360484379528e+01 0.0000000000000000e+00
-3.9535517153268749e+01 4.4544618953282928e+01 0.0000000000000000e+00
-3.1896221237665344e+01 4.5168224437651318e+01 0.0000000000000000e+00
ITEM: ATOMS id type xs ys zs
1 1 0.00209881 0.00249796 0.0124338
2 2 0.0106909 0.0181405 0.0124856
3 1 0.0284482 0.0181148 0.0125064
4 2 0.0370216 0.00247034 0.0125122
5 2 0.0029052 0.00247535 0.0541952
6 1 0.0114716 0.0181176 0.0541856
7 2 0.0291967 0.018122 0.0542279
8 1 0.0377876 0.00250182 0.054232
9 1 0.00211055 0.0025397 0.0958067
10 2 0.0106965 0.0181723 0.0958962
11 1 0.028438 0.0181693 0.0958315
12 2 0.0369963 0.00253824 0.0958094
13 2 0.00292466 0.00253284 0.137557
14 1 0.0115234 0.0181446 0.137585
15 2 0.0292478 0.0181106 0.137517
16 1 0.0378306 0.00247751 0.137447
17 1 0.00212859 0.00255304 0.179383
18 2 0.0107375 0.0181469 0.179306
19 1 0.0284533 0.0181402 0.179331
20 2 0.0370253 0.00251101 0.179404
21 2 0.00292059 0.00250462 0.220939
22 1 0.0115115 0.0181624 0.221006
23 2 0.0292477 0.0181455 0.220897
24 1 0.0378097 0.00254225 0.22088
25 1 0.00207155 0.00252314 0.262435
26 2 0.0106589 0.0181535 0.262481
27 1 0.028393 0.0181505 0.262452
28 2 0.036983 0.00251393 0.262462
29 2 0.00293735 0.00253102 0.304205
30 1 0.0115186 0.0181667 0.30422
31 2 0.029282 0.018172 0.304304
32 1 0.0378244 0.00251879 0.304213
33 1 0.00207697 0.00249377 0.345834
34 2 0.0106843 0.0181186 0.345846
35 1 0.0284191 0.018142 0.345902
36 2 0.0370252 0.00247796 0.345898
37 2 0.00293358 0.00249507 0.387546
38 1 0.011523 0.0180912 0.387554
39 2 0.0292346 0.0181277 0.387466
40 1 0.0378485 0.00249285 0.387524
41 1 0.00213241 0.00248555 0.429251
42 2 0.0107101 0.0181281 0.429178
43 1 0.0284701 0.018105 0.429228
44 2 0.0370494 0.00250205 0.429174
45 2 0.0029081 0.00249064 0.470955
46 1 0.0114759 0.01813 0.470842
47 2 0.0292447 0.0181384 0.470769
48 1 0.0377982 0.00251038 0.470721
49 1 0.00216154 0.00254847 0.512651
50 2 0.0107074 0.0181418 0.51262
51 1 0.0284579 0.0181668 0.512562
52 2 0.037075 0.00252067 0.512558
53 2 0.00294693 0.0025295 0.554232
54 1 0.0115346 0.0181613 0.554115
55 2 0.0292605 0.0181455 0.554146
56 1 0.0378732 0.00249199 0.554193
57 1 0.00212894 0.0024651 0.596045
58 2 0.0107019 0.0181242 0.596023
59 1 0.0284208 0.0181098 0.595928
60 2 0.0369884 0.00248929 0.595976
61 2 0.0029206 0.00251962 0.637665
62 1 0.0114858 0.018115 0.637644
63 2 0.0292496 0.0180922 0.637611
64 1 0.0378426 0.00247384 0.63749
65 1 0.00211895 0.00250407 0.679259
66 2 0.0106964 0.0181219 0.679283
67 1 0.0284112 0.0181066 0.679312
68 2 0.0370373 0.00246028 0.679287
69 2 0.00293756 0.00249508 0.720888
70 1 0.011507 0.0180996 0.720952
71 2 0.0292114 0.018141 0.720967
72 1 0.0378133 0.0025195 0.720983
73 1 0.0021425 0.00248749 0.762693
74 2 0.0107385 0.0181108 0.762781
75 1 0.0284772 0.0180966 0.762683
76 2 0.0370534 0.00247288 0.762619
77 2 0.00295439 0.00240629 0.80419
78 1 0.0115076 0.0180488 0.804331
79 2 0.0292332 0.0180982 0.804279
80 1 0.037797 0.00247269 0.804284
81 1 0.00214746 0.00242793 0.845856
82 2 0.0107136 0.0180537 0.845846
83 1 0.0284351 0.0180837 0.845936
84 2 0.0370143 0.0024771 0.845852
85 2 0.0029799 0.00250837 0.887546
86 1 0.0115107 0.0181154 0.887548
87 2 0.0292554 0.0181427 0.887541
88 1 0.0378473 0.00252466 0.887665
89 1 0.00207202 0.00247348 0.929244
90 2 0.0106718 0.0180734 0.929251
91 1 0.028417 0.0181019 0.929179
92 2 0.037005 0.00248483 0.929287
93 2 0.00293946 0.00249605 0.970979
94 1 0.0115165 0.0181126 0.97095
95 2 0.0292403 0.0181365 0.970909
96 1 0.0378439 0.00249876 0.970904
97 1 0.00207859 0.0337475 0.0125288
98 2 0.010672 0.0493878 0.0125578
99 1 0.0284367 0.0493753 0.0125347
100 2 0.0370439 0.0337133 0.0125404
101 2 0.00294561 0.0337485 0.0541888
102 1 0.0114872 0.0493817 0.0541968
103 2 0.0292182 0.0494025 0.0543007
104 1 0.0377853 0.0337579 0.054287
105 1 0.00212651 0.0338228 0.0958339
106 2 0.0106891 0.0494718 0.0958992
107 1 0.0284318 0.0494406 0.0959385
108 2 0.0370255 0.0338136 0.0959009
109 2 0.00293186 0.0337572 0.137639
110 1 0.0114871 0.0493897 0.137474
111 2 0.0292547 0.0494306 0.137574
112 1 0.0378419 0.0337591 0.137535
113 1 0.00210994 0.0337641 0.179348
114 2 0.0107186 0.0493649 0.17933
115 1 0.0284656 0.0493575 0.179231
116 2 0.0370499 0.0337395 0.17922
117 2 0.0029311 0.0337923 0.221058
118 1 0.0115337 0.0494085 0.220937
119 2 0.0292448 0.049389 0.220816
120 1 0.0378539 0.0337661 0.220879
121 1 0.00207738 0.0337821 0.262498
122 2 0.0106472 0.0494169 0.262549
123 1 0.0283758 0.0493856 0.262501
124 2 0.0369457 0.0337666 0.262473
125 2 0.00293713 0.0337453 0.304205
126 1 0.0115288 0.049385 0.304252
127 2 0.0292391 0.0493697 0.304191
128 1 0.0378573 0.033776 0.304287
129 1 0.00212761 0.0337571 0.345866
130 2 0.0107082 0.0493723 0.345812
131 1 0.0284428 0.0494044 0.345943
132 2 0.0370261 0.0337718 0.345894
133 2 0.00292717 0.0337393 0.387558
134 1 0.0114995 0.0494225 0.387551
135 2 0.0292205 0.0494089 0.387567
136 1 0.0378128 0.0337642 0.387406
137 1 0.00214062 0.0337684 0.429174
138 2 0.0107118 0.0494081 0.429205
139 1 0.028475 0.0493989 0.429327
140 2 0.0370156 0.0337516 0.429294
141 2 0.00291083 0.0337806 0.470842
142 1 0.0114654 0.0493982 0.470888
143 2 0.0292016 0.0494228 0.47089
144 1 0.0378029 0.0337996 0.47085
145 1 0.0021324 0.0337334 0.512594
146 2 0.0107422 0.0493942 0.512607
147 1 0.0284577 0.0494015 0.51255
148 2 0.037017 0.0337878 0.512557
149 2 0.00294767 0.033784 0.554325
150 1 0.011554 0.0493746 0.554324
151 2 0.0292834 0.0493635 0.554264
152 1 0.0378759 0.0337503 0.554192
153 1 0.00214417 0.033746 0.595897
154 2 0.0107278 0.0493706 0.595918
155 1 0.0284801 0.0493339 0.595917
156 2 0.0370376 0.0337076 0.595928
157 2 0.00292953 0.0337756 0.637638
158 1 0.0115137 0.0493646 0.637648
159 2 0.029251 0.0493265 0.637656
160 1 0.037833 0.0337435 0.637604
161 1 0.0020811 0.0337439 0.679333
162 2 0.0106719 0.0493435 0.679331
163 1 0.0283872 0.0493246 0.679357
164 2 0.0370374 0.0337357 0.679353
165 2 0.00293717 0.0337425 0.720939
166 1 0.011528 0.0493739 0.721018
167 2 0.0292422 0.0493416 0.721063
168 1 0.0378299 0.0337607 0.720896
169 1 0.0021279 0.0337131 0.762772
170 2 0.0106963 0.0493055 0.762666
171 1 0.0284384 0.0492987 0.762669
172 2 0.0370406 0.0336712 0.762683
173 2 0.00290379 0.0336839 0.804324
174 1 0.011491 0.0492744 0.804311
175 2 0.0292238 0.0493128 0.804343
176 1 0.0378143 0.033697 0.804321
177 1 0.00214782 0.0337062 0.845895
178 2 0.0107076 0.0493741 0.845936
179 1 0.0284412 0.0493661 0.845976
180 2 0.036999 0.0337365 0.846052
181 2 0.00295382 0.0337393 0.88762
182 1 0.0115071 0.0493808 0.887579
183 2 0.0292372 0.0494001 0.887597
184 1 0.0378185 0.0337532 0.887603
185 1 0.00210091 0.0337348 0.929192
186 2 0.0107079 0.0493337 0.929179
187 1 0.0284287 0.0493565 0.929178
188 2 0.0369912 0.0337189 0.929196
189 2 0.00295489 0.0337189 0.970952
190 1 0.0115089 0.0493347 0.970931
191 2 0.0292388 0.0493574 0.970882
192 1 0.0378087 0.0336973 0.970982
193 1 0.00213789 0.06499 0.0126316
194 2 0.01071 0.0806344 0.0126851
195 1 0.0284639 0.0806155 0.0127021
196 2 0.0370153 0.0650241 0.0125839
197 2 0.00293356 0.0649996 0.054203
198 1 0.0114923 0.0806546 0.0542037
199 2 0.0292286 0.0806453 0.0543592
200 1 0.0377901 0.0650163 0.0543001
201 1 0.00214465 0.0651075 0.095871
202 2 0.010733 0.080712 0.0958267
203 1 0.0284536 0.0806856 0.0959024
204 2 0.037036 0.0650858 0.0959376
205 2 0.0029259 0.0650416 0.137531
206 1 0.0115477 0.0806721 0.137534
207 2 0.0292722 0.0806991 0.137591
208 1 0.0378519 0.0650086 0.137552
209 1 0.00214336 0.0649974 0.179301
210 2 0.0107179 0.080622 0.179264
211 1 0.0284625 0.0806203 0.179307
212 2 0.0370113 0.0649933 0.179276
213 2 0.00296468 0.0650394 0.220923
214 1 0.0115468 0.0806543 0.220874
215 2 0.0292627 0.0806677 0.220839
216 1 0.0378597 0.0650132 0.220787
217 1 0.00211521 0.0650543 0.262501
218 2 0.0106696 0.0806639 0.2625
219 1 0.0284271 0.0806495 0.262481
220 2 0.0369775 0.0649984 0.26248
221 2 0.00290636 0.0649906 0.304307
222 1 0.0114889 0.0806069 0.304249
223 2 0.0292259 0.0806314 0.304189
224 1 0.0377787 0.0650256 0.304149
225 1 0.00214384 0.0649803 0.345886
226 2 0.010745 0.0806169 0.345829
227 1 0.0284542 0.0806342 0.345891
228 2 0.037098 0.065016 0.34591
229 2 0.00289004 0.065045 0.387618
230 1 0.0115061 0.0806724 0.387722
231 2 0.0292817 0.0806421 0.387645
232 1 0.0378474 0.0649985 0.387607
233 1 0.00210478 0.0650231 0.429202
234 2 0.0106751 0.0806615 0.429295
235 1 0.0284096 0.0806642 0.429266
236 2 0.0369911 0.0650125 0.429275
237 2 0.00288546 0.065028 0.470967
238 1 0.0115012 0.0806582 0.470955
239 2 0.0291962 0.0806657 0.470906
240 1 0.0378294 0.0650844 0.470859
241 1 0.00213565 0.0650346 0.512556
242 2 0.0107253 0.0806602 0.512697
243 1 0.0284537 0.0806394 0.512603
244 2 0.0370251 0.0650287 0.512544
245 2 0.00296164 0.0649916 0.554334
246 1 0.011541 0.0806385 0.554324
247 2 0.0292701 0.0806377 0.554224
248 1 0.0378725 0.0650198 0.554149
249 1 0.0021319 0.0649727 0.595946
250 2 0.0107448 0.0805777 0.596008
251 1 0.0284695 0.0805893 0.596009
252 2 0.0370262 0.064954 0.595944
253 2 0.00291751 0.0650109 0.63767
254 1 0.011526 0.0806145 0.637626
255 2 0.0292414 0.0806505 0.637592
256 1 0.0378046 0.0650039 0.637584
257 1 0.0021251 0.0649984 0.67928
258 2 0.0107321 0.080605 0.679351
259 1 0.0284451 0.0805806 0.67937
260 2 0.0370114 0.0649629 0.679306
261 2 0.00289271 0.0649917 0.720956
262 1 0.0115198 0.0805991 0.720906
263 2 0.0292855 0.0805742 0.721031
264 1 0.0378461 0.0649456 0.721084
265 1 0.00211171 0.0648952 0.762692
266 2 0.0106977 0.080527 0.762707
267 1 0.0284404 0.0805344 0.762792
268 2 0.0370566 0.0649276 0.762731
269 2 0.0029122 0.0649349 0.804276
270 1 0.0114617 0.0805849 0.804335
271 2 0.0291979 0.0805878 0.804223
272 1 0.0377798 0.0649566 0.804332
273 1 0.00212462 0.0650185 0.845866
274 2 0.0106927 0.0806597 0.845947
275 1 0.0284281 0.0806284 0.845985
276 2 0.0370494 0.0650184 0.846033
277 2 0.00292813 0.0650507 0.887575
278 1 0.0115101 0.0806525 0.8876
279 2 0.0292501 0.0806721 0.887594
280 1 0.037782 0.0650331 0.88759
281 1 0.00211293 0.064968 0.929165
282 2 0.0106601 0.0806281 0.9292
283 1 0.0284267 0.0805951 0.929287
284 2 0.0370257 0.0649869 0.929272
285 2 0.00291775 0.0650411 0.970842
286 1 0.0115117 0.0806364 0.970839
287 2 0.0292454 0.0805771 0.970853
288 1 0.037852 0.0649581 0.970827
289 1 0.00211587 0.0962432 0.0126174
290 2 0.0107138 0.111842 0.0126017
291 1 0.0284327 0.111862 0.0125853
292 2 0.0370219 0.0962598 0.012605
293 2 0.00293499 0.0962842 0.0541363
294 1 0.0115575 0.111909 0.0542419
295 2 0.0292554 0.111943 0.0543169
296 1 0.0378233 0.0962631 0.0542944
297 1 0.00212821 0.0963284 0.0959437
298 2 0.010722 0.11197 0.0959232
299 1 0.0284452 0.111945 0.096006
300 2 0.0370272 0.0963174 0.0960023
301 2 0.0029335 0.0963052 0.137479
302 1 0.0115307 0.111911 0.137528
303 2 0.0292556 0.111914 0.137475
304 1 0.0378546 0.0963249 0.137489
305 1 0.00215068 0.0962154 0.179188
306 2 0.0106979 0.111848 0.179205
307 1 0.0284328 0.11186 0.179258
308 2 0.0370189 0.0962529 0.179361
309 2 0.00291332 0.0962997 0.220827
310 1 0.0115077 0.111918 0.220713
311 2 0.0292594 0.111924 0.220802
312 1 0.0378174 0.0963019 0.220801
313 1 0.00208643 0.0962931 0.262509
314 2 0.0106629 0.111929 0.262641
315 1 0.0283977 0.111922 0.262703
316 2 0.0369482 0.0962792 0.262604
317 2 0.00287293 0.0962501 0.304255
318 1 0.0114706 0.111867 0.304221
319 2 0.029203 0.111897 0.304169
320 1 0.0378116 0.0962777 0.304222
321 1 0.00214814 0.0962499 0.345871
322 2 0.0107423 0.11184 0.345898
323 1 0.0284808 0.111854 0.345835
324 2 0.037097 0.0962434 0.345863
325 2 0.00295788 0.0962682 0.38764
326 1 0.0115311 0.111862 0.387496
327 2 0.0292356 0.111887 0.387447
328 1 0.0378484 0.096261 0.38755
329 1 0.00207597 0.0962693 0.429192
330 2 0.0106606 0.111885 0.429174
331 1 0.0284316 0.111877 0.429066
332 2 0.0370496 0.0962876 0.429214
333 2 0.00288709 0.0962346 0.470889
334 1 0.0114841 0.111888 0.470805
335 2 0.0292276 0.111865 0.470835
336 1 0.0377981 0.0962539 0.470915
337 1 0.00215374 0.0962551 0.512692
338 2 0.0107418 0.111864 0.512568
339 1 0.0284755 0.111872 0.512394
340 2 0.0370345 0.096258 0.512496
341 2 0.00298102 0.0962494 0.554311
342 1 0.0115073 0.111883 0.554375
343 2 0.0292659 0.111882 0.554462
344 1 0.0378588 0.0962318 0.554258
345 1 0.00215505 0.0962243 0.59597
346 2 0.0107414 0.11186 0.595973
347 1 0.0284623 0.111851 0.595932
348 2 0.0369984 0.096228 0.596087
349 2 0.00293932 0.0962477 0.637529
350 1 0.0115184 0.111902 0.637567
351 2 0.0292512 0.111861 0.637684
352 1 0.0378512 0.0962509 0.637618
353 1 0.00214143 0.0962329 0.679203
354 2 0.010712 0.111816 0.679112
355 1 0.0284309 0.111838 0.679234
356 2 0.0370174 0.0962201 0.679353
357 2 0.00295111 0.0962148 0.720809
358 1 0.011523 0.111859 0.720836
359 2 0.0292816 0.111846 0.72095
360 1 0.0378485 0.0962255 0.721075
361 1 0.00210321 0.096138 0.762699
362 2 0.0106442 0.111753 0.762653
363 1 0.0283802 0.111805 0.762803
364 2 0.0369862 0.0961862 0.762822
365 2 0.00286773 0.096186 0.804372
366 1 0.0114867 0.111794 0.804329
367 2 0.0292237 0.111806 0.804266
368 1 0.0377948 0.0961974 0.804176
369 1 0.00215379 0.0962751 0.845987
370 2 0.0107531 0.111868 0.84591
371 1 0.0285069 0.111897 0.845938
372 2 0.0370722 0.0962616 0.845898
373 2 0.00290555 0.0962674 0.887599
374 1 0.0114908 0.111878 0.887609
375 2 0.0291733 0.111921 0.887613
376 1 0.0378169 0.0962972 0.887712
377 1 0.00208843 0.096211 0.92924
378 2 0.0106831 0.111803 0.929262
379 1 0.0284322 0.111869 0.929289
380 2 0.037013 0.0962397 0.929294
381 2 0.00288626 0.096255 0.970854
382 1 0.0115067 0.111845 0.970905
383 2 0.0292351 0.111851 0.970891
384 1 0.0377978 0.0962005 0.970868
385 1 0.00214734 0.127526 0.0125455
386 2 0.0107515 0.143127 0.0125374
387 1 0.0284464 0.143115 0.012625
388 2 0.0370337 0.127479 0.0125467
389 2 0.00294178 0.12752 0.0543049
390 1 0.011502 0.143141 0.0542733
391 2 0.0292379 0.143162 0.054248
392 1 0.0378647 0.127591 0.0542989
393 1 0.00213172 0.127603 0.0959498
394 2 0.0106953 0.143223 0.0958045
395 1 0.0284411 0.143197 0.095835
396 2 0.0370434 0.127556 0.0959674
397 2 0.00288646 0.127528 0.137439
398 1 0.0114938 0.14317 0.137437
399 2 0.0292542 0.143146 0.137531
400 1 0.0378457 0.127499 0.13752
401 1 0.00215482 0.127474 0.179216
402 2 0.0106716 0.143103 0.179238
403 1 0.0284237 0.143119 0.179166
404 2 0.0370042 0.127504 0.179117
405 2 0.00294387 0.127503 0.220839
406 1 0.0115165 0.143148 0.220819
407 2 0.029241 0.143201 0.220939
408 1 0.037809 0.127561 0.220933
409 1 0.00210065 0.127558 0.262632
410 2 0.0106701 0.143184 0.262662
411 1 0.0283914 0.143179 0.262707
412 2 0.0369736 0.127543 0.262696
413 2 0.00290895 0.127461 0.304215
414 1 0.0115008 0.14309 0.304236
415 2 0.0292257 0.143154 0.304205
416 1 0.0378235 0.127502 0.304197
417 1 0.0021322 0.127496 0.34588
418 2 0.0107276 0.143087 0.34578
419 1 0.0284616 0.143132 0.345817
420 2 0.0370563 0.1275 0.345805
421 2 0.00293151 0.12748 0.38745
422 1 0.0115118 0.1431 0.38754
423 2 0.0292594 0.143123 0.387491
424 1 0.0378173 0.12751 0.387409
425 1 0.0021403 0.127534 0.429184
426 2 0.0107069 0.143164 0.429133
427 1 0.0284418 0.143157 0.429083
428 2 0.0369965 0.127513 0.429013
429 2 0.00290512 0.127504 0.470805
430 1 0.0114701 0.143112 0.470853
431 2 0.0292096 0.143097 0.470759
432 1 0.0378009 0.127498 0.470846
433 1 0.00212526 0.12744 0.512585
434 2 0.0106584 0.143088 0.512559
435 1 0.0284503 0.143125 0.512493
436 2 0.0370339 0.127489 0.512464
437 2 0.00293479 0.127516 0.554297
438 1 0.0115321 0.14312 0.554076
439 2 0.0292796 0.143127 0.554089
440 1 0.0378409 0.127528 0.554361
441 1 0.00216247 0.127498 0.59584
442 2 0.0107544 0.143142 0.595822
443 1 0.0284658 0.143115 0.595861
444 2 0.0370275 0.127469 0.595922
445 2 0.0029451 0.127543 0.637566
446 1 0.0115306 0.143136 0.637538
447 2 0.0292525 0.143157 0.637594
448 1 0.0378202 0.127514 0.637583
449 1 0.00213864 0.127441 0.679103
450 2 0.0106816 0.143085 0.679176
451 1 0.0284274 0.143118 0.679232
452 2 0.0370182 0.127493 0.679333
453 2 0.00290659 0.127473 0.720787
454 1 0.0115071 0.143076 0.720786
455 2 0.0292746 0.143084 0.720877
456 1 0.0378532 0.12746 0.720973
457 1 0.00210815 0.127413 0.762602
458 2 0.0107004 0.143019 0.762619
459 1 0.0284234 0.143067 0.762743
460 2 0.0369923 0.127428 0.762766
461 2 0.00291783 0.127402 0.804264
462 1 0.0114834 0.143066 0.804198
463 2 0.0292227 0.143101 0.804268
464 1 0.0377717 0.127433 0.804292
465 1 0.00218761 0.127507 0.846013
466 2 0.0107682 0.143114 0.845969
467 1 0.0285074 0.143112 0.845958
468 2 0.037088 0.127537 0.845944
469 2 0.0028783 0.127535 0.887594
470 1 0.0114399 0.143156 0.887502
471 2 0.0291696 0.143187 0.887548
472 1 0.0377781 0.127561 0.88763
473 1 0.00211907 0.127451 0.929301
474 2 0.0107054 0.143122 0.929403
475 1 0.0284383 0.1431 0.929299
476 2 0.0370094 0.127503 0.929217
477 2 0.00292988 0.127464 0.970844
478 1 0.0114759 0.143092 0.970804
479 2 0.0292317 0.143111 0.970887
480 1 0.0377909 0.127463 0.970927
481 1 0.00215026 0.15873 0.0124305
482 2 0.0107041 0.174355 0.0124409
483 1 0.0284378 0.174358 0.0126336
484 2 0.036976 0.158691 0.0126577
485 2 0.0029346 0.158792 0.0542699
486 1 0.0114943 0.174366 0.0543501
487 2 0.0292596 0.174395 0.0541762
488 1 0.0378287 0.158785 0.0541667
489 1 0.0020971 0.1588 0.0958104
490 2 0.0106868 0.174422 0.095878
491 1 0.0284221 0.174427 0.0959686
492 2 0.0370094 0.158813 0.0959094
493 2 0.00291887 0.158785 0.13745
494 1 0.0114753 0.17441 0.137442
495 2 0.0292326 0.174406 0.137503
496 1 0.0378415 0.158763 0.137501
497 1 0.00208191 0.15872 0.179166
498 2 0.0106394 0.174382 0.179181
499 1 0.0283955 0.174372 0.179222
500 2 0.0370001 0.158748 0.179192
501 2 0.00290026 0.158806 0.220827
502 1 0.0114723 0.174438 0.220835
503 2 0.0292186 0.174448 0.220862
504 1 0.037822 0.158831 0.220936
505 1 0.00212132 0.15882 0.262665
506 2 0.0106997 0.17442 0.262718
507 1 0.0284307 0.174396 0.262777
508 2 0.0369943 0.158786 0.262709
509 2 0.00295347 0.158748 0.304271
510 1 0.0115557 0.174376 0.304261
511 2 0.0292595 0.17439 0.304344
512 1 0.0378421 0.158752 0.304196
513 1 0.00213445 0.158726 0.345752
514 2 0.0107172 0.174351 0.345755
515 1 0.0284621 0.174406 0.345821
516 2 0.037018 0.158784 0.345844
517 2 0.0029508 0.158761 0.387548
518 1 0.0115241 0.17439 0.38761
519 2 0.0292587 0.174391 0.387558
520 1 0.0378289 0.158767 0.387515
521 1 0.00211418 0.158791 0.429165
522 2 0.0107206 0.174416 0.429226
523 1 0.0284591 0.174368 0.429205
524 2 0.0370278 0.158771 0.429134
525 2 0.00290501 0.158754 0.470933
526 1 0.0115191 0.174374 0.470933
527 2 0.0292562 0.174401 0.470842
528 1 0.0378299 0.158726 0.470738
529 1 0.00212654 0.158714 0.512569
530 2 0.0107064 0.174357 0.512597
531 1 0.0284381 0.174347 0.512562
532 2 0.0370279 0.158718 0.512483
533 2 0.00295282 0.158747 0.554165
534 1 0.0115474 0.17435 0.554133
535 2 0.0292702 0.174372 0.554195
536 1 0.0378619 0.15874 0.554208
537 1 0.00216982 0.158775 0.595837
538 2 0.0107368 0.174368 0.595835
539 1 0.0284416 0.174367 0.595819
540 2 0.0370245 0.15874 0.595907
541 2 0.00292796 0.158789 0.637502
542 1 0.0115332 0.17438 0.637505
543 2 0.0292494 0.174376 0.637507
544 1 0.0378344 0.158756 0.637543
545 1 0.00213395 0.158696 0.679152
546 2 0.0107336 0.174359 0.679193
547 1 0.0284551 0.174333 0.679277
548 2 0.0370206 0.158718 0.679265
549 2 0.00295247 0.158675 0.720787
550 1 0.011545 0.174325 0.720854
551 2 0.0292667 0.174324 0.720885
552 1 0.0378622 0.158716 0.720906
553 1 0.00212232 0.158651 0.762504
554 2 0.0106648 0.174297 0.762621
555 1 0.0284271 0.174322 0.762759
556 2 0.0369992 0.158723 0.762791
557 2 0.00287108 0.158711 0.804263
558 1 0.0114397 0.174324 0.8043
559 2 0.0291871 0.174344 0.804275
560 1 0.0377889 0.158708 0.804222
561 1 0.00218971 0.158755 0.845936
562 2 0.0107231 0.174409 0.845904
563 1 0.0284612 0.174378 0.845928
564 2 0.0370856 0.15878 0.84596
565 2 0.00288292 0.158775 0.887603
566 1 0.0114524 0.174388 0.88757
567 2 0.0291483 0.174376 0.887653
568 1 0.0377779 0.158789 0.887529
569 1 0.0021149 0.158716 0.92934
570 2 0.0106877 0.174344 0.929297
571 1 0.02842 0.174363 0.929252
572 2 0.0370088 0.15874 0.929211
573 2 0.00290966 0.158716 0.970871
574 1 0.0114808 0.174352 0.971072
575 2 0.0292039 0.174403 0.971028
576 1 0.0377992 0.15877 0.97094
577 1 0.00211832 0.189989 0.0125319
578 2 0.0107359 0.205599 0.0126321
579 1 0.0284814 0.205638 0.0127601
580 2 0.0370365 0.189995 0.0126835
581 2 0.00295818 0.190017 0.0543976
582 1 0.0115436 0.205607 0.0544251
583 2 0.0292711 0.205631 0.0543619
584 1 0.0378136 0.189999 0.0541866
585 1 0.00208589 0.190053 0.0959089
586 2 0.0106855 0.205641 0.0959529
587 1 0.0284357 0.205632 0.0960708
588 2 0.0370385 0.190043 0.0960331
589 2 0.00290092 0.190018 0.137464
590 1 0.011496 0.205621 0.137508
591 2 0.0292261 0.205612 0.137597
592 1 0.0378378 0.190027 0.137511
593 1 0.00210497 0.189999 0.17912
594 2 0.0106988 0.205628 0.179116
595 1 0.0284286 0.205615 0.179193
596 2 0.0369905 0.189988 0.179159
597 2 0.00288137 0.190031 0.220982
598 1 0.0114844 0.20563 0.221066
599 2 0.0292185 0.205666 0.221054
600 1 0.0378426 0.190044 0.220934
601 1 0.00211876 0.190063 0.262747
602 2 0.0107233 0.205678 0.262633
603 1 0.0284251 0.205667 0.262645
604 2 0.0370289 0.190015 0.262714
605 2 0.00297203 0.190018 0.304278
606 1 0.0115024 0.205664 0.304418
607 2 0.0292891 0.205706 0.304403
608 1 0.0378359 0.190033 0.304358
609 1 0.00212838 0.18999 0.34586
610 2 0.0107111 0.205657 0.345973
611 1 0.0284607 0.205661 0.345952
612 2 0.0370202 0.190034 0.345937
613 2 0.00293716 0.189982 0.387662
614 1 0.01151 0.205626 0.387641
615 2 0.0292487 0.205635 0.387636
616 1 0.0378629 0.190007 0.387456
617 1 0.00209976 0.190019 0.429235
618 2 0.0106958 0.205661 0.429264
619 1 0.0284242 0.205663 0.429254
620 2 0.0370192 0.190005 0.42919
621 2 0.00291653 0.190036 0.470915
622 1 0.0115244 0.205591 0.47086
623 2 0.0292607 0.205609 0.470985
624 1 0.0378405 0.19 0.470786
625 1 0.00211675 0.190008 0.512638
626 2 0.0106777 0.205644 0.512646
627 1 0.0284124 0.205634 0.512536
628 2 0.0370087 0.190005 0.512493
629 2 0.00297851 0.189977 0.554154
630 1 0.0115411 0.205573 0.554157
631 2 0.0292992 0.205612 0.554238
632 1 0.0378703 0.189997 0.554205
633 1 0.0021599 0.189987 0.59584
634 2 0.0107302 0.205636 0.595787
635 1 0.0284663 0.205624 0.595802
636 2 0.0370307 0.189996 0.595865
637 2 0.00294157 0.190016 0.637537
638 1 0.0115362 0.205617 0.637468
639 2 0.0292812 0.205568 0.637515
640 1 0.0378423 0.189976 0.637535
641 1 0.00213519 0.189938 0.679153
642 2 0.010695 0.205605 0.679133
643 1 0.0284292 0.205618 0.679263
644 2 0.0370305 0.189964 0.679308
645 2 0.00296829 0.189964 0.720928
646 1 0.0115281 0.205581 0.720937
647 2 0.0292284 0.205592 0.720974
648 1 0.037832 0.189959 0.720995
649 1 0.00210405 0.189894 0.762614
650 2 0.0107211 0.205514 0.762646
651 1 0.0284538 0.205556 0.76266
652 2 0.0370233 0.189924 0.76263
653 2 0.00290661 0.189949 0.804188
654 1 0.0114943 0.205573 0.8042
655 2 0.0292223 0.205567 0.804264
656 1 0.0378329 0.189945 0.804269
657 1 0.00215567 0.19005 0.845911
658 2 0.0107383 0.205712 0.845991
659 1 0.0284656 0.205666 0.845984
660 2 0.0370516 0.190024 0.845897
661 2 0.00287521 0.189989 0.88755
662 1 0.0114762 0.205653 0.887562
663 2 0.0292169 0.205638 0.887636
664 1 0.0377716 0.189998 0.887712
665 1 0.00211169 0.189972 0.929181
666 2 0.0107008 0.20561 0.929186
667 1 0.0284132 0.205624 0.929212
668 2 0.0369796 0.189984 0.929289
669 2 0.00291057 0.190009 0.970889
670 1 0.011503 0.205619 0.970922
671 2 0.0292359 0.205633 0.970969
672 1 0.03781 0.190002 0.970995
673 1 0.00215925 0.221229 0.0126118
674 2 0.0107348 0.236883 0.0126007
675 1 0.0284654 0.23688 0.0127148
676 2 0.037037 0.221245 0.0127975
677 2 0.00296478 0.221276 0.0543105
678 1 0.0115319 0.236876 0.0543396
679 2 0.0292679 0.236906 0.0543471
680 1 0.0378076 0.221263 0.0542976
681 1 0.00209568 0.221226 0.0959646
682 2 0.0106679 0.23688 0.0959717
683 1 0.0284224 0.236843 0.0960439
684 2 0.0370308 0.221272 0.0960207
685 2 0.00289984 0.221239 0.137516
686 1 0.0114724 0.236885 0.137574
687 2 0.0292135 0.236875 0.137716
688 1 0.0377905 0.221259 0.137685
689 1 0.00209466 0.221196 0.179187
690 2 0.0106834 0.236843 0.179232
691 1 0.0284358 0.236874 0.179279
692 2 0.0370391 0.221285 0.179268
693 2 0.00291114 0.221313 0.220935
694 1 0.0114867 0.236912 0.220856
695 2 0.029255 0.236896 0.220868
696 1 0.0378173 0.221276 0.220851
697 1 0.00215992 0.221299 0.262641
698 2 0.0107072 0.23691 0.262597
699 1 0.0284514 0.236887 0.262692
700 2 0.0370462 0.221242 0.262692
701 2 0.00292595 0.221289 0.304409
702 1 0.0115074 0.236919 0.304408
703 2 0.0292163 0.236937 0.304393
704 1 0.0378508 0.221312 0.304451
705 1 0.00213143 0.221278 0.345945
706 2 0.010716 0.23691 0.345963
707 1 0.0284425 0.236954 0.345922
708 2 0.0370469 0.221328 0.345983
709 2 0.00292128 0.221273 0.387628
710 1 0.0115521 0.236905 0.387738
711 2 0.0292699 0.236915 0.387657
712 1 0.037836 0.221293 0.387574
713 1 0.00212185 0.221267 0.429325
714 2 0.0107208 0.236941 0.429367
715 1 0.0284402 0.236907 0.429275
716 2 0.0370032 0.221286 0.429265
717 2 0.00294327 0.221237 0.470984
718 1 0.0114905 0.236906 0.470908
719 2 0.0292206 0.236881 0.471033
720 1 0.0377639 0.221249 0.471042
721 1 0.00210136 0.221246 0.512557
722 2 0.0106903 0.236873 0.512553
723 1 0.0284595 0.236887 0.51252
724 2 0.0370186 0.221238 0.51256
725 2 0.00297175 0.221197 0.554189
726 1 0.0115259 0.236838 0.554225
727 2 0.0292908 0.236874 0.554269
728 1 0.0378705 0.221247 0.554241
729 1 0.00213615 0.221245 0.595724
730 2 0.0107287 0.236904 0.595796
731 1 0.0284617 0.236874 0.595833
732 2 0.0370276 0.221257 0.595787
733 2 0.0029108 0.221252 0.637482
734 1 0.0114939 0.236847 0.637531
735 2 0.029264 0.23686 0.637553
736 1 0.0378504 0.221226 0.637477
737 1 0.00214776 0.221213 0.679166
738 2 0.010703 0.236865 0.679296
739 1 0.0284547 0.236852 0.679289
740 2 0.0370208 0.221239 0.679379
741 2 0.00294162 0.221205 0.721022
742 1 0.0115013 0.236839 0.720929
743 2 0.0292278 0.236881 0.721017
744 1 0.0378142 0.221225 0.721007
745 1 0.00212399 0.221137 0.762673
746 2 0.0106596 0.236775 0.762652
747 1 0.0283943 0.236807 0.762556
748 2 0.0369936 0.221197 0.762524
749 2 0.00290494 0.221195 0.804235
750 1 0.0114985 0.236804 0.80422
751 2 0.02922 0.236813 0.804259
752 1 0.0377952 0.22115 0.80438
753 1 0.00212093 0.221316 0.845943
754 2 0.0107186 0.236938 0.845903
755 1 0.0284736 0.236919 0.845822
756 2 0.0370627 0.221311 0.84587
757 2 0.00288592 0.221275 0.887581
758 1 0.0114753 0.236883 0.887621
759 2 0.0292043 0.236862 0.887504
760 1 0.0377809 0.221264 0.887546
761 1 0.00211109 0.221208 0.929253
762 2 0.0106842 0.236876 0.929262
763 1 0.0284181 0.23692 0.92928
764 2 0.0369948 0.221296 0.929233
765 2 0.0029205 0.221234 0.970822
766 1 0.0115199 0.236827 0.970899
767 2 0.0292462 0.236839 0.97087
768 1 0.0378248 0.221239 0.970933
769 1 0.00216087 0.252501 0.0126003
770 2 0.0107455 0.268155 0.0126414
771 1 0.0284733 0.268157 0.012587
772 2 0.0370529 0.252518 0.0126263
773 2 0.00293368 0.25249 0.0542352
774 1 0.0114941 0.268123 0.0543744
775 2 0.029243 0.268124 0.0544538
776 1 0.0378632 0.252517 0.054322
777 1 0.00210574 0.252496 0.0959809
778 2 0.0106841 0.268139 0.0960259
779 1 0.0284462 0.268101 0.0960501
780 2 0.0370139 0.252475 0.0960718
781 2 0.00291039 0.252519 0.137554
782 1 0.0115378 0.2681 0.137527
783 2 0.0292706 0.268118 0.13759
784 1 0.0377996 0.252469 0.137675
785 1 0.00211809 0.252484 0.179243
786 2 0.0106761 0.268122 0.179247
787 1 0.0284214 0.268099 0.179295
788 2 0.0369887 0.252505 0.17937
789 2 0.00290926 0.252523 0.220912
790 1 0.0115149 0.268134 0.220927
791 2 0.0292396 0.268159 0.220848
792 1 0.0378176 0.252528 0.220851
793 1 0.00208596 0.252492 0.262583
794 2 0.0107064 0.268107 0.262552
795 1 0.0284628 0.268145 0.262475
796 2 0.037016 0.252546 0.262669
797 2 0.00290583 0.252558 0.304339
798 1 0.0114944 0.268189 0.304427
799 2 0.0292494 0.268166 0.304393
800 1 0.0378165 0.252535 0.304364
801 1 0.0021357 0.252545 0.345988
802 2 0.0107332 0.268194 0.346045
803 1 0.0284711 0.268166 0.34598
804 2 0.0370511 0.252548 0.345867
805 2 0.00297767 0.252519 0.387719
806 1 0.0114995 0.268171 0.387671
807 2 0.029242 0.268158 0.387651
808 1 0.0378392 0.252522 0.387634
809 1 0.00213654 0.252541 0.429399
810 2 0.0107481 0.268163 0.429265
811 1 0.0284679 0.268093 0.429243
812 2 0.0370565 0.25249 0.429278
813 2 0.00288493 0.252524 0.470864
814 1 0.0114937 0.268143 0.470951
815 2 0.029248 0.268144 0.471034
816 1 0.0377932 0.252492 0.471027
817 1 0.00210856 0.25252 0.512529
818 2 0.0107067 0.268125 0.512505
819 1 0.0284232 0.26814 0.512449
820 2 0.0370163 0.25252 0.512403
821 2 0.0029612 0.252444 0.554238
822 1 0.0115746 0.268081 0.554096
823 2 0.0292867 0.268063 0.554031
824 1 0.0378899 0.25246 0.554032
825 1 0.00212948 0.2525 0.595871
826 2 0.0107117 0.268112 0.59593
827 1 0.0284294 0.268152 0.595976
828 2 0.0370199 0.252483 0.595846
829 2 0.00290529 0.252479 0.63763
830 1 0.0114858 0.268111 0.637558
831 2 0.0292482 0.268119 0.637581
832 1 0.037853 0.252458 0.637591
833 1 0.00214036 0.252511 0.679319
834 2 0.0107318 0.268107 0.679365
835 1 0.0284656 0.268108 0.679204
836 2 0.0370405 0.252482 0.679214
837 2 0.00293898 0.252487 0.720888
838 1 0.0115435 0.268115 0.720916
839 2 0.0292923 0.268138 0.721007
840 1 0.0378386 0.252497 0.721054
841 1 0.00206291 0.252444 0.76257
842 2 0.0106682 0.268067 0.762659
843 1 0.0283716 0.268018 0.762603
844 2 0.0369851 0.252424 0.76256
845 2 0.00293164 0.252422 0.804236
846 1 0.0115193 0.26806 0.804208
847 2 0.029222 0.268114 0.804227
848 1 0.0378005 0.252449 0.804211
849 1 0.00212281 0.252548 0.845949
850 2 0.0107129 0.268147 0.845932
851 1 0.0284603 0.268127 0.84596
852 2 0.0370413 0.252539 0.845859
853 2 0.00291651 0.252529 0.887712
854 1 0.0114797 0.268152 0.887698
855 2 0.02921 0.268153 0.887688
856 1 0.0377876 0.2525 0.887586
857 1 0.00211066 0.252507 0.929141
858 2 0.0106906 0.268173 0.929182
859 1 0.0284629 0.268152 0.929307
860 2 0.0370363 0.252526 0.929279
861 2 0.0029241 0.252462 0.97086
862 1 0.0114946 0.268101 0.970876
863 2 0.0292211 0.268098 0.970901