ITEM: TIMESTEP
814673
ITEM: NUMBER OF ATOMS
58368
ITEM: BOX BOUNDS xy xz yz pp pp pp
-3.9006362984379528e+01 4.3344360484379528e+01 0.0000000000000000e+00
-4.5688111141485706e+01 5.0697212941499885e+01 0.0000000000000000e+00
-3.1218261761165756e+01 4.4490264961151730e+01 0.0000000000000000e+00
ITEM: ATOMS id type xs ys zs
1 1 0.00102262 0.00254135 0.0125709
2 2 0.00917934 0.0181429 0.012603
3 1 0.0272907 0.0181623 0.01265
4 2 0.0355033 0.00257033 0.0126821
5 2 0.00447932 0.00246102 0.0542073
6 1 0.0125972 0.0180306 0.0542773
7 2 0.030778 0.0180686 0.054343
8 1 0.0388748 0.00243531 0.0543441
9 1 0.0010568 0.00250001 0.0960047
10 2 0.00923972 0.0181208 0.0959077
11 1 0.0273723 0.0181295 0.0957838
12 2 0.0355542 0.0024826 0.0958897
13 2 0.00440661 0.00250806 0.137559
14 1 0.0125313 0.0181091 0.137482
15 2 0.0307234 0.018107 0.137633
16 1 0.0388756 0.00247852 0.137671
17 1 0.00108466 0.00249548 0.179249
18 2 0.0091947 0.0181409 0.179221
19 1 0.0273429 0.0181031 0.17925
20 2 0.0355578 0.00252796 0.179117
21 2 0.00444171 0.00247696 0.220931
22 1 0.012606 0.0180921 0.220924
23 2 0.0307658 0.0180887 0.220986
24 1 0.0388809 0.00250969 0.220924
25 1 0.00107295 0.00245277 0.26262
26 2 0.00920161 0.0180676 0.262559
27 1 0.0273896 0.0180691 0.262617
28 2 0.0355524 0.00250113 0.26261
29 2 0.00440589 0.00249827 0.304329
30 1 0.0125713 0.0181321 0.304229
31 2 0.0307327 0.0181363 0.304325
32 1 0.0388643 0.00246635 0.304275
33 1 0.00108194 0.00253938 0.345677
34 2 0.00924659 0.0181402 0.345816
35 1 0.0274181 0.0181337 0.345836
36 2 0.0355582 0.00250944 0.345855
37 2 0.00443172 0.0025102 0.387497
38 1 0.012562 0.0181205 0.3875
39 2 0.0307463 0.0181098 0.38756
40 1 0.0388972 0.00251106 0.387567
41 1 0.000960584 0.00249321 0.429244
42 2 0.00919339 0.0181032 0.429146
43 1 0.027319 0.0181303 0.429133
44 2 0.0355122 0.0024885 0.429129
45 2 0.00441785 0.00248744 0.470774
46 1 0.0125702 0.0181158 0.470933
47 2 0.0307003 0.0181168 0.470821
48 1 0.0387826 0.00246565 0.47085
49 1 0.000990109 0.0025255 0.512472
50 2 0.00916934 0.0181124 0.51248
51 1 0.027321 0.0181134 0.512395
52 2 0.0354705 0.00249471 0.512368
53 2 0.004418 0.00252283 0.554345
54 1 0.0125749 0.0181753 0.554334
55 2 0.0307286 0.018163 0.554239
56 1 0.0388731 0.00250141 0.554328
57 1 0.000988647 0.00243919 0.595862
58 2 0.00914108 0.0181416 0.5959
59 1 0.0273188 0.0181098 0.595982
60 2 0.0355038 0.00245739 0.595984
61 2 0.00438335 0.00249469 0.63749
62 1 0.0125589 0.0181652 0.637518
63 2 0.0307096 0.0181256 0.637409
64 1 0.0388723 0.00246677 0.637438
65 1 0.00106713 0.00250456 0.679072
66 2 0.0092495 0.0181221 0.679109
67 1 0.0273807 0.0181853 0.679202
68 2 0.0355262 0.00254393 0.679109
69 2 0.00440661 0.00257319 0.720779
70 1 0.0125468 0.0181799 0.720903
71 2 0.0307366 0.018152 0.720911
72 1 0.0389019 0.00249923 0.720911
73 1 0.00110828 0.00252778 0.762396
74 2 0.00924982 0.0181151 0.762431
75 1 0.0274466 0.018113 0.762472
76 2 0.0355784 0.00244804 0.76256
77 2 0.00443777 0.00245333 0.804226
78 1 0.0125982 0.0180902 0.804314
79 2 0.0307568 0.0180409 0.8043
80 1 0.0389519 0.00244411 0.804205
81 1 0.00110438 0.00241044 0.84591
82 2 0.00921025 0.0180867 0.845909
83 1 0.0273704 0.0180788 0.845996
84 2 0.0354897 0.0024761 0.845858
85 2 0.00444064 0.00240787 0.887496
86 1 0.0125735 0.0180615 0.887477
87 2 0.0307289 0.0180185 0.887504
88 1 0.0388784 0.00241573 0.887578
89 1 0.000992849 0.00248678 0.92924
90 2 0.00921483 0.018099 0.929215
91 1 0.0273638 0.0180975 0.929052
92 2 0.0354533 0.00252998 0.929238
93 2 0.00441715 0.00251049 0.970825
94 1 0.0126407 0.0181082 0.970719
95 2 0.0307686 0.0181733 0.97084
96 1 0.0388961 0.00255042 0.970896
97 1 0.000985685 0.0337529 0.0125796
98 2 0.00918022 0.0493658 0.0126262
99 1 0.0273492 0.0494017 0.0125913
100 2 0.0354569 0.0337659 0.0126059
101 2 0.00447994 0.0336891 0.0542886
102 1 0.0125587 0.0492815 0.0542188
103 2 0.0307229 0.0493569 0.0542832
104 1 0.0389151 0.0337267 0.0542801
105 1 0.00103595 0.0337104 0.0959398
106 2 0.00919863 0.0493644 0.0959668
107 1 0.0273334 0.0493691 0.095989
108 2 0.035525 0.0337454 0.0958436
109 2 0.00435139 0.0337122 0.13741
110 1 0.0125257 0.0493188 0.137472
111 2 0.0307339 0.0493328 0.137497
112 1 0.0388947 0.0336976 0.137592
113 1 0.00110265 0.0337826 0.17921
114 2 0.00919344 0.0493884 0.179234
115 1 0.0273723 0.0493845 0.17924
116 2 0.0355275 0.0337183 0.179264
117 2 0.00444761 0.0337472 0.220867
118 1 0.0126141 0.0492951 0.22099
119 2 0.030769 0.0493356 0.220919
120 1 0.0389309 0.0336816 0.220866
121 1 0.00105927 0.033664 0.26244
122 2 0.00923106 0.04928 0.262436
123 1 0.0274213 0.0493038 0.262553
124 2 0.0355486 0.0336724 0.262619
125 2 0.00438865 0.033755 0.304148
126 1 0.0125844 0.049328 0.304094
127 2 0.0307227 0.0493457 0.304135
128 1 0.0389116 0.0337461 0.304167
129 1 0.0010653 0.0337337 0.345817
130 2 0.00924396 0.0493194 0.345972
131 1 0.0274148 0.0493075 0.345976
132 2 0.0355691 0.0337232 0.345924
133 2 0.00446593 0.0338009 0.387572
134 1 0.01257 0.0494229 0.38754
135 2 0.0307023 0.049402 0.387669
136 1 0.0388395 0.0338031 0.387631
137 1 0.000999677 0.0337025 0.429111
138 2 0.00918733 0.0493749 0.429206
139 1 0.0273519 0.0493648 0.429223
140 2 0.0354857 0.0337498 0.4291
141 2 0.00436701 0.0337072 0.470914
142 1 0.0125491 0.0493275 0.470869
143 2 0.0307057 0.0493812 0.470788
144 1 0.0388383 0.0337286 0.470765
145 1 0.000953367 0.0337087 0.512415
146 2 0.00912065 0.049327 0.512385
147 1 0.0272837 0.0493651 0.512554
148 2 0.0354098 0.0337417 0.512481
149 2 0.00448973 0.0337617 0.554289
150 1 0.0125939 0.049409 0.554131
151 2 0.0307469 0.0494252 0.554206
152 1 0.0389101 0.0337755 0.554207
153 1 0.00105784 0.0337732 0.595885
154 2 0.00921448 0.0493888 0.595862
155 1 0.0274027 0.0493394 0.595892
156 2 0.0355049 0.033744 0.596001
157 2 0.00444101 0.0337974 0.637569
158 1 0.0125876 0.0494521 0.63758
159 2 0.030744 0.0494192 0.637579
160 1 0.0388779 0.0337679 0.637534
161 1 0.00104773 0.0337376 0.679245
162 2 0.00923157 0.049378 0.679243
163 1 0.0273697 0.0493922 0.679247
164 2 0.0354957 0.0337766 0.679277
165 2 0.00439713 0.0338197 0.7209
166 1 0.0125926 0.0493978 0.720981
167 2 0.0307778 0.0493886 0.720916
168 1 0.0389317 0.0337648 0.720837
169 1 0.00107027 0.0337811 0.762447
170 2 0.00925336 0.0493599 0.762517
171 1 0.0274192 0.0493687 0.762557
172 2 0.0355918 0.0337504 0.762473
173 2 0.00450147 0.0337121 0.80428
174 1 0.0126703 0.0493451 0.804263
175 2 0.0307938 0.049341 0.804219
176 1 0.0389333 0.0336706 0.804285
177 1 0.00104393 0.0336654 0.84581
178 2 0.00919252 0.0493176 0.845847
179 1 0.0273526 0.0493434 0.845898
180 2 0.0355401 0.0336864 0.846022
181 2 0.00445358 0.03367 0.887458
182 1 0.0125613 0.0492884 0.887483
183 2 0.03072 0.0492596 0.887567
184 1 0.0388867 0.0336182 0.887514
185 1 0.00100959 0.0337183 0.929215
186 2 0.00918185 0.0492935 0.929154
187 1 0.0273169 0.0493181 0.929028
188 2 0.0354743 0.0336975 0.929128
189 2 0.00441669 0.0337659 0.970833
190 1 0.0126088 0.049387 0.970916
191 2 0.0307685 0.0493406 0.970896
192 1 0.0388958 0.0337702 0.970875
193 1 0.000982555 0.0649747 0.0126508
194 2 0.00913468 0.0805708 0.0126373
195 1 0.0272784 0.0806168 0.0126334
196 2 0.0354992 0.0649985 0.0126482
197 2 0.00442001 0.0649134 0.0542691
198 1 0.0125975 0.0805466 0.0542017
199 2 0.0307298 0.0806108 0.0542214
200 1 0.0388272 0.0649652 0.0542708
201 1 0.00103795 0.0650035 0.0959294
202 2 0.00918758 0.080646 0.0959886
203 1 0.027332 0.0806496 0.0959442
204 2 0.03547 0.0650341 0.0958787
205 2 0.00440038 0.0649959 0.137615
206 1 0.012551 0.0806632 0.137617
207 2 0.0307016 0.080606 0.137586
208 1 0.0388832 0.0649735 0.13749
209 1 0.00107804 0.0650359 0.179168
210 2 0.00923136 0.0806384 0.179186
211 1 0.0273895 0.08065 0.179255
212 2 0.0355333 0.0649836 0.179243
213 2 0.00447362 0.0649858 0.220965
214 1 0.0125885 0.0806111 0.220942
215 2 0.0307674 0.0806379 0.220904
216 1 0.0389177 0.06497 0.220914
217 1 0.00109568 0.0649588 0.262423
218 2 0.00922532 0.0805989 0.262448
219 1 0.0273642 0.0805864 0.262373
220 2 0.0355498 0.0650008 0.262494
221 2 0.00450919 0.0650072 0.304203
222 1 0.0125862 0.0806292 0.304297
223 2 0.0307711 0.0806268 0.30433
224 1 0.0389111 0.0650006 0.304234
225 1 0.00110683 0.0649903 0.345953
226 2 0.00924175 0.0806103 0.345874
227 1 0.0273746 0.0806079 0.345935
228 2 0.0355288 0.0650149 0.345933
229 2 0.00443843 0.0650822 0.387626
230 1 0.0125598 0.0806974 0.387616
231 2 0.0307284 0.0807019 0.387622
232 1 0.0388257 0.0650539 0.387682
233 1 0.00101339 0.0650055 0.429279
234 2 0.00918664 0.080603 0.429304
235 1 0.0273391 0.080597 0.429312
236 2 0.0354644 0.0650006 0.429196
237 2 0.00438247 0.0649911 0.470937
238 1 0.0125255 0.0806302 0.470869
239 2 0.0306874 0.0806375 0.470915
240 1 0.0388717 0.0649774 0.470887
241 1 0.00101661 0.0649605 0.512358
242 2 0.00918761 0.0805744 0.512434
243 1 0.0273243 0.0805988 0.512523
244 2 0.035476 0.0649748 0.512583
245 2 0.00439357 0.0650276 0.554117
246 1 0.0125571 0.0806167 0.554219
247 2 0.0307637 0.0806543 0.554154
248 1 0.0388979 0.0650294 0.554129
249 1 0.00106762 0.0649901 0.59584
250 2 0.0092476 0.0805968 0.595947
251 1 0.0273935 0.0805672 0.595964
252 2 0.0355346 0.0649199 0.595942
253 2 0.00444193 0.0650593 0.637649
254 1 0.0126274 0.0806537 0.637642
255 2 0.0307455 0.0806858 0.637658
256 1 0.0388955 0.0650619 0.63756
257 1 0.00106709 0.065051 0.679278
258 2 0.00918806 0.0806371 0.679399
259 1 0.027317 0.0806657 0.679278
260 2 0.0355006 0.0650383 0.679286
261 2 0.00448154 0.0650149 0.720873
262 1 0.0125897 0.080618 0.721026
263 2 0.0307547 0.0806295 0.720883
264 1 0.0389012 0.0649937 0.720851
265 1 0.00103568 0.0650445 0.762521
266 2 0.00924083 0.0806303 0.76259
267 1 0.0274157 0.0806528 0.762597
268 2 0.0355985 0.0650057 0.762544
269 2 0.004459 0.0649411 0.804123
270 1 0.0126137 0.0805908 0.804082
271 2 0.0307843 0.0806211 0.804179
272 1 0.0389605 0.0649165 0.804199
273 1 0.000998776 0.0649715 0.845771
274 2 0.00915463 0.0805782 0.845717
275 1 0.0273395 0.0805554 0.845869
276 2 0.0354978 0.0649418 0.845896
277 2 0.00435526 0.064884 0.887509
278 1 0.0125116 0.0805404 0.887513
279 2 0.0306786 0.0805493 0.887662
280 1 0.0388684 0.0649196 0.887626
281 1 0.00102614 0.0649669 0.92909
282 2 0.00920933 0.0805843 0.929039
283 1 0.027351 0.0806279 0.929176
284 2 0.0354982 0.0649549 0.929184
285 2 0.00443494 0.0649714 0.970922
286 1 0.0125708 0.0805969 0.970902
287 2 0.0306932 0.0806086 0.97094
288 1 0.0389012 0.0649571 0.970966
289 1 0.000969241 0.0961691 0.0125782
290 2 0.00914144 0.111811 0.0126401
291 1 0.0273134 0.111818 0.0126701
292 2 0.0354861 0.0962386 0.012701
293 2 0.0044216 0.0961992 0.054212
294 1 0.0125907 0.111826 0.0541766
295 2 0.0307367 0.111857 0.0541906
296 1 0.0388507 0.0962585 0.0542086
297 1 0.00105038 0.0962807 0.0959359
298 2 0.00919788 0.11188 0.0958546
299 1 0.0273448 0.111898 0.0958487
300 2 0.0355516 0.0962517 0.0960019
301 2 0.0044559 0.0962935 0.137673
302 1 0.0126325 0.111922 0.137597
303 2 0.0307803 0.111865 0.137679
304 1 0.0388782 0.096172 0.13763
305 1 0.0010551 0.0962412 0.179181
306 2 0.00921884 0.111863 0.179147
307 1 0.0273468 0.111877 0.179218
308 2 0.0355146 0.0962673 0.179234
309 2 0.00445947 0.0962554 0.220803
310 1 0.0125479 0.111897 0.220796
311 2 0.0307347 0.11189 0.220777
312 1 0.0388737 0.0962439 0.220782
313 1 0.0010947 0.0962419 0.262461
314 2 0.00921002 0.111862 0.262445
315 1 0.0273871 0.111843 0.262428
316 2 0.0355763 0.0961697 0.262407
317 2 0.00441636 0.0962697 0.304199
318 1 0.0126106 0.111855 0.304262
319 2 0.0307708 0.111851 0.304231
320 1 0.0389519 0.0962207 0.304332
321 1 0.0010609 0.09622 0.345876
322 2 0.00917693 0.111898 0.345872
323 1 0.0273695 0.111894 0.345835
324 2 0.0355461 0.096261 0.345948
325 2 0.00441455 0.0962974 0.387608
326 1 0.0125595 0.111898 0.387685
327 2 0.0307051 0.111927 0.387608
328 1 0.0388544 0.0963235 0.387555
329 1 0.00100167 0.0962125 0.429405
330 2 0.00914086 0.111844 0.429288
331 1 0.027325 0.111851 0.429328
332 2 0.0354916 0.0962098 0.429279
333 2 0.00435752 0.0962611 0.47091
334 1 0.0125494 0.111884 0.470873
335 2 0.030714 0.111844 0.47088
336 1 0.0388573 0.0962264 0.470877
337 1 0.000989466 0.0962238 0.512523
338 2 0.00914741 0.111843 0.512508
339 1 0.0273076 0.111841 0.512538
340 2 0.0354709 0.0962322 0.512551
341 2 0.00435677 0.0962382 0.554235
342 1 0.0125485 0.111884 0.554249
343 2 0.0307102 0.111892 0.554281
344 1 0.0388708 0.0963039 0.554172
345 1 0.00114787 0.0961918 0.595962
346 2 0.00918786 0.111884 0.596032
347 1 0.0273349 0.111879 0.595987
348 2 0.035517 0.0961914 0.595959
349 2 0.00444335 0.0963197 0.637621
350 1 0.0125819 0.111877 0.637594
351 2 0.0307855 0.111883 0.637607
352 1 0.0389346 0.09628 0.63768
353 1 0.00102978 0.0962668 0.67935
354 2 0.00917724 0.111903 0.679149
355 1 0.0273474 0.111894 0.679104
356 2 0.0354876 0.0962469 0.679224
357 2 0.00449077 0.0962663 0.720978
358 1 0.0126003 0.111921 0.721023
359 2 0.0307655 0.111923 0.721009
360 1 0.0388762 0.0962715 0.720861
361 1 0.00111595 0.096277 0.762526
362 2 0.00928338 0.111901 0.762544
363 1 0.0274172 0.111898 0.762603
364 2 0.0355407 0.0962483 0.762625
365 2 0.00443946 0.0962627 0.804036
366 1 0.0126007 0.111924 0.804173
367 2 0.0307752 0.111902 0.804283
368 1 0.0389344 0.0962172 0.804208
369 1 0.00098704 0.0962162 0.845742
370 2 0.00914665 0.111852 0.845866
371 1 0.0272889 0.111818 0.845907
372 2 0.035458 0.0961479 0.845863
373 2 0.00436403 0.0962022 0.887508
374 1 0.012564 0.111805 0.887535
375 2 0.0307172 0.111762 0.887485
376 1 0.0388488 0.0961248 0.887589
377 1 0.00101277 0.0961751 0.929101
378 2 0.00919572 0.111815 0.929162
379 1 0.0273978 0.111834 0.929177
380 2 0.0355134 0.0961916 0.929132
381 2 0.00440746 0.0962558 0.970948
382 1 0.0126343 0.111869 0.970965
383 2 0.0307726 0.111878 0.970827
384 1 0.0388795 0.0962735 0.970834
385 1 0.000995944 0.127469 0.0126083
386 2 0.00919701 0.143074 0.0126213
387 1 0.0273268 0.143039 0.0125662
388 2 0.035474 0.127383 0.0125944
389 2 0.00445483 0.127416 0.0541985
390 1 0.0125624 0.143036 0.0540721
391 2 0.0307351 0.143066 0.0540267
392 1 0.0388815 0.127449 0.0540877
393 1 0.000999244 0.127452 0.095805
394 2 0.00916421 0.143107 0.0957125
395 1 0.0273486 0.143077 0.0957828
396 2 0.0355106 0.127455 0.095871
397 2 0.0044651 0.12754 0.13748
398 1 0.012616 0.143133 0.137365
399 2 0.0307718 0.143094 0.137489
400 1 0.0388763 0.127502 0.137616
401 1 0.00103002 0.127531 0.179078
402 2 0.00916064 0.14311 0.17906
403 1 0.027356 0.143077 0.179071
404 2 0.0354981 0.127461 0.179093
405 2 0.00443875 0.127513 0.220878
406 1 0.012608 0.143187 0.220769
407 2 0.0307779 0.143151 0.220852
408 1 0.0388986 0.127494 0.220807
409 1 0.00104936 0.127528 0.262467
410 2 0.00921727 0.143083 0.262429
411 1 0.0273876 0.143083 0.26246
412 2 0.0355474 0.127479 0.262523
413 2 0.00444633 0.127492 0.304254
414 1 0.012614 0.143109 0.304302
415 2 0.0308053 0.143124 0.30419
416 1 0.0389298 0.127439 0.304198
417 1 0.00102793 0.127535 0.346025
418 2 0.00919413 0.143154 0.345915
419 1 0.0273744 0.143146 0.345899
420 2 0.0354896 0.127505 0.345907
421 2 0.00433464 0.127561 0.387622
422 1 0.0124753 0.143165 0.387682
423 2 0.0306332 0.143148 0.387537
424 1 0.038827 0.127546 0.387628
425 1 0.00101155 0.127487 0.42923
426 2 0.00916447 0.14312 0.429275
427 1 0.0273506 0.14311 0.429272
428 2 0.0354909 0.127478 0.429314
429 2 0.00442571 0.127492 0.470923
430 1 0.0125495 0.143076 0.470845
431 2 0.0307082 0.143059 0.470821
432 1 0.0388814 0.127486 0.470862
433 1 0.00102059 0.127432 0.51246
434 2 0.00918817 0.143094 0.512495
435 1 0.0273394 0.143046 0.5125
436 2 0.0354436 0.127467 0.512454
437 2 0.00436152 0.127551 0.554293
438 1 0.0125528 0.143186 0.554302
439 2 0.0307268 0.143183 0.554332
440 1 0.0388668 0.12755 0.554277
441 1 0.00105036 0.127492 0.596023
442 2 0.0091987 0.143125 0.596116
443 1 0.0273741 0.143087 0.596064
444 2 0.0355376 0.127485 0.595896
445 2 0.00441371 0.127486 0.637647
446 1 0.0125854 0.143115 0.63766
447 2 0.0307294 0.14312 0.637483
448 1 0.0389187 0.127526 0.637535
449 1 0.00104162 0.127485 0.679232
450 2 0.00918938 0.143112 0.679229
451 1 0.0273319 0.143095 0.679202
452 2 0.0354869 0.12749 0.679089
453 2 0.00449688 0.127589 0.721042
454 1 0.0126258 0.143155 0.721066
455 2 0.0307773 0.143156 0.721086
456 1 0.0389306 0.127583 0.72108
457 1 0.00113539 0.127518 0.762512
458 2 0.00926868 0.143114 0.762521
459 1 0.027434 0.143148 0.762539
460 2 0.0355746 0.127518 0.76256
461 2 0.00446829 0.127526 0.804288
462 1 0.0126067 0.143155 0.8042
463 2 0.0307551 0.143181 0.804259
464 1 0.0389188 0.127535 0.804273
465 1 0.000990397 0.127451 0.845881
466 2 0.00913556 0.143091 0.845805
467 1 0.027271 0.143099 0.845862
468 2 0.0354785 0.127468 0.845885
469 2 0.00443188 0.127472 0.8875
470 1 0.0125754 0.143076 0.887571
471 2 0.0307206 0.143039 0.887524
472 1 0.0388848 0.127388 0.887516
473 1 0.00103917 0.127462 0.929166
474 2 0.00915927 0.143043 0.929162
475 1 0.027339 0.143105 0.929155
476 2 0.0355272 0.127497 0.929213
477 2 0.00444984 0.127502 0.971027
478 1 0.0125718 0.143158 0.970917
479 2 0.0307688 0.143121 0.970957
480 1 0.0389434 0.127512 0.970896
481 1 0.00101156 0.158751 0.0125709
482 2 0.00917392 0.174368 0.0125988
483 1 0.0272943 0.174376 0.0125534
484 2 0.0354308 0.158774 0.0126342
485 2 0.00447112 0.158653 0.0540143
486 1 0.0126281 0.174337 0.0540706
487 2 0.0307791 0.174341 0.0541604
488 1 0.0388922 0.158681 0.0541061
489 1 0.00102954 0.158702 0.0957042
490 2 0.00918834 0.174303 0.0956257
491 1 0.0273183 0.174338 0.0956706
492 2 0.0355321 0.158701 0.0957891
493 2 0.00443101 0.158788 0.137382
494 1 0.0125756 0.174409 0.137393
495 2 0.0307311 0.174349 0.13748
496 1 0.0388677 0.158714 0.137587
497 1 0.00101493 0.158725 0.179053
498 2 0.00917279 0.17436 0.179079
499 1 0.0273296 0.174332 0.179048
500 2 0.0355057 0.158706 0.179126
501 2 0.00448262 0.158777 0.220783
502 1 0.0125811 0.174369 0.220773
503 2 0.0307582 0.174386 0.220807
504 1 0.0389179 0.158732 0.220797
505 1 0.00105215 0.158669 0.262458
506 2 0.00921268 0.174286 0.262518
507 1 0.0273599 0.174339 0.262378
508 2 0.0355672 0.158677 0.262373
509 2 0.0045021 0.158773 0.304114
510 1 0.0126796 0.174387 0.304033
511 2 0.0308372 0.174369 0.303996
512 1 0.0389632 0.158747 0.304041
513 1 0.00105097 0.158751 0.345877
514 2 0.00922555 0.174393 0.345908
515 1 0.0273951 0.174386 0.345945
516 2 0.0355526 0.1588 0.345959
517 2 0.00431855 0.15881 0.387642
518 1 0.0124957 0.174433 0.387593
519 2 0.0307061 0.174458 0.387571
520 1 0.0388344 0.158789 0.387521
521 1 0.00104371 0.15873 0.429285
522 2 0.00917428 0.174352 0.429256
523 1 0.0273392 0.174329 0.429251
524 2 0.0354737 0.158708 0.429261
525 2 0.00439003 0.158687 0.470838
526 1 0.0125595 0.174287 0.470899
527 2 0.0307411 0.174301 0.470879
528 1 0.0388681 0.158667 0.470876
529 1 0.00101184 0.158698 0.512456
530 2 0.00920563 0.174362 0.512499
531 1 0.0273575 0.174381 0.512563
532 2 0.0354726 0.158702 0.512525
533 2 0.00437194 0.15876 0.554302
534 1 0.0124932 0.174368 0.554331
535 2 0.0306612 0.17437 0.554408
536 1 0.0388632 0.158756 0.554432
537 1 0.00104118 0.158759 0.596062
538 2 0.00923315 0.174381 0.596054
539 1 0.0273711 0.174385 0.595997
540 2 0.0355255 0.158719 0.595965
541 2 0.00441237 0.158744 0.637675
542 1 0.0125559 0.174378 0.63767
543 2 0.0307186 0.17434 0.637631
544 1 0.0388798 0.158763 0.637458
545 1 0.00102926 0.15874 0.679286
546 2 0.00923045 0.174353 0.679299
547 1 0.0273749 0.17438 0.679342
548 2 0.0355239 0.158754 0.679296
549 2 0.00446367 0.158802 0.720972
550 1 0.0126052 0.174412 0.721025
551 2 0.030767 0.174392 0.720959
552 1 0.0389071 0.158757 0.72099
553 1 0.00111669 0.158781 0.762632
554 2 0.00926811 0.174397 0.762638
555 1 0.0274149 0.174352 0.762754
556 2 0.0355605 0.158779 0.762593
557 2 0.00443339 0.158774 0.804087
558 1 0.0126185 0.174393 0.804173
559 2 0.0307701 0.174387 0.804286
560 1 0.0389124 0.15877 0.804287
561 1 0.000990672 0.15876 0.845727
562 2 0.00914833 0.174372 0.84575
563 1 0.0272795 0.174411 0.84588
564 2 0.0354386 0.158726 0.84588
565 2 0.00438353 0.15867 0.887571
566 1 0.0125305 0.174274 0.887532
567 2 0.0306941 0.174256 0.887525
568 1 0.0388985 0.158652 0.887511
569 1 0.00101053 0.158721 0.929237
570 2 0.00920202 0.174339 0.929129
571 1 0.0273423 0.174352 0.92922
572 2 0.0355204 0.158725 0.929175
573 2 0.00442348 0.158819 0.970964
574 1 0.0126192 0.1744 0.970857
575 2 0.0307893 0.174353 0.970845
576 1 0.038927 0.158706 0.970838
577 1 0.00100314 0.189989 0.0125825
578 2 0.00916794 0.20556 0.012524
579 1 0.0273497 0.205575 0.0125246
580 2 0.035482 0.189986 0.0125483
581 2 0.00443246 0.189985 0.0541424
582 1 0.0126033 0.205612 0.0541289
583 2 0.0307689 0.205621 0.0540807
584 1 0.0389328 0.189982 0.0540866
585 1 0.00103298 0.189986 0.0957675
586 2 0.00921321 0.205612 0.0956949
587 1 0.0273797 0.205601 0.0957002
588 2 0.0354765 0.189924 0.0956136
589 2 0.00443484 0.190044 0.137514
590 1 0.0125701 0.205619 0.137493
591 2 0.0307194 0.20562 0.137427
592 1 0.0389014 0.189981 0.137437
593 1 0.00104216 0.189979 0.179135
594 2 0.00917756 0.205639 0.179035
595 1 0.0273338 0.205664 0.17905
596 2 0.03549 0.189986 0.179043
597 2 0.00439895 0.189996 0.220752
598 1 0.0125689 0.205676 0.220735
599 2 0.0307463 0.20564 0.220881
600 1 0.0388931 0.190021 0.220838
601 1 0.0010102 0.189879 0.2625
602 2 0.00915364 0.205478 0.262464
603 1 0.0273503 0.20554 0.262334
604 2 0.0355142 0.189893 0.262396
605 2 0.00450479 0.189993 0.304071
606 1 0.0126539 0.205641 0.304116
607 2 0.0308049 0.205625 0.304178
608 1 0.0389638 0.189987 0.304131
609 1 0.00102197 0.189974 0.345817
610 2 0.00915937 0.2056 0.3458
611 1 0.0273612 0.205585 0.345838
612 2 0.0355313 0.190018 0.345926
613 2 0.00439417 0.190067 0.387637
614 1 0.0125624 0.205629 0.3876
615 2 0.030733 0.205659 0.387493
616 1 0.0389054 0.190083 0.387488
617 1 0.00102476 0.190045 0.429219
618 2 0.00919065 0.205633 0.429252
619 1 0.0273477 0.205607 0.429221
620 2 0.0354961 0.18995 0.429224
621 2 0.00444166 0.189961 0.470915
622 1 0.0126251 0.205604 0.470939
623 2 0.0308079 0.205568 0.470896
624 1 0.0388941 0.189964 0.470866
625 1 0.00104637 0.189947 0.51249
626 2 0.009225 0.205594 0.512532
627 1 0.0273724 0.205625 0.512574
628 2 0.0355122 0.189965 0.512514
629 2 0.00435449 0.189999 0.554309
630 1 0.0125232 0.205626 0.554458
631 2 0.0306721 0.205581 0.554472
632 1 0.0388617 0.18998 0.554459
633 1 0.00106954 0.190045 0.596
634 2 0.00924608 0.205586 0.596078
635 1 0.0273674 0.205622 0.596004
636 2 0.0355529 0.190035 0.595977
637 2 0.00443325 0.190044 0.637566
638 1 0.0125887 0.205648 0.637634
639 2 0.0306966 0.205667 0.637617
640 1 0.0388694 0.190019 0.637617
641 1 0.00104278 0.190013 0.67931
642 2 0.00919265 0.205631 0.679235
643 1 0.027367 0.205612 0.679361
644 2 0.0355004 0.189968 0.6793
645 2 0.00447203 0.190022 0.720885
646 1 0.0126216 0.205631 0.720933
647 2 0.03078 0.205634 0.720946
648 1 0.0389134 0.189977 0.720976
649 1 0.00107004 0.190011 0.762567
650 2 0.00923874 0.205651 0.762544
651 1 0.0274036 0.205627 0.762528
652 2 0.0355547 0.189955 0.762575
653 2 0.00444101 0.189978 0.804117
654 1 0.0125429 0.205622 0.804053
655 2 0.0307174 0.205606 0.80416
656 1 0.0389028 0.190007 0.804262
657 1 0.00103637 0.189955 0.845772
658 2 0.00915551 0.205584 0.845853
659 1 0.0273033 0.205586 0.845902
660 2 0.0354561 0.189968 0.845862
661 2 0.00439134 0.18988 0.887579
662 1 0.012597 0.205574 0.887552
663 2 0.0307247 0.205525 0.887514
664 1 0.038839 0.189905 0.887521
665 1 0.00101962 0.19003 0.929177
666 2 0.0092078 0.205607 0.929248
667 1 0.0273482 0.205584 0.929198
668 2 0.0354675 0.18998 0.929285
669 2 0.00443415 0.190016 0.970876
670 1 0.0125814 0.205624 0.970961
671 2 0.0307213 0.205606 0.970842
672 1 0.0389008 0.189978 0.970821
673 1 0.000997024 0.221217 0.0124761
674 2 0.00917546 0.236874 0.0124015
675 1 0.027347 0.236836 0.0124551
676 2 0.0354768 0.221208 0.012516
677 2 0.00446801 0.221247 0.0540905
678 1 0.0126475 0.236843 0.0540483
679 2 0.0307923 0.236839 0.0541325
680 1 0.0389267 0.221235 0.0541485
681 1 0.0010242 0.221261 0.0956656
682 2 0.00920852 0.236886 0.095788
683 1 0.0273705 0.236862 0.0957816
684 2 0.0355484 0.221248 0.0958273
685 2 0.00443083 0.221298 0.137458
686 1 0.0125877 0.236922 0.137384
687 2 0.0307406 0.236854 0.137298
688 1 0.0388898 0.221267 0.137329
689 1 0.00101709 0.221281 0.179107
690 2 0.00916061 0.236854 0.179118
691 1 0.0273207 0.236867 0.179075
692 2 0.0355272 0.221217 0.179096
693 2 0.00441666 0.221268 0.22078
694 1 0.0125732 0.236867 0.220839
695 2 0.0307517 0.236868 0.220878
696 1 0.0389542 0.221181 0.220858
697 1 0.0010414 0.221162 0.262546
698 2 0.00919052 0.236843 0.262518
699 1 0.0273168 0.236816 0.262502
700 2 0.0354545 0.221211 0.262414
701 2 0.00451992 0.221218 0.304159
702 1 0.0126218 0.236812 0.30414
703 2 0.0307746 0.236856 0.304115
704 1 0.038932 0.221274 0.304074
705 1 0.00102139 0.221193 0.345705
706 2 0.0092037 0.236818 0.345748
707 1 0.027333 0.236845 0.345707
708 2 0.0355265 0.221234 0.345853
709 2 0.00438105 0.221272 0.387606
710 1 0.0124946 0.236826 0.387637
711 2 0.0306561 0.23686 0.387542
712 1 0.0388829 0.22125 0.387479
713 1 0.00103338 0.221264 0.429386
714 2 0.00919344 0.236909 0.429318
715 1 0.0273756 0.236858 0.42925
716 2 0.0355078 0.221205 0.429298
717 2 0.00439745 0.221205 0.470964
718 1 0.0125842 0.23683 0.470942
719 2 0.0307606 0.23684 0.470899
720 1 0.0389436 0.221218 0.470918
721 1 0.00110273 0.221245 0.512571
722 2 0.00918725 0.236853 0.51254
723 1 0.027344 0.23684 0.512603
724 2 0.0355347 0.221221 0.512643
725 2 0.00434716 0.221243 0.554435
726 1 0.0125302 0.236875 0.554365
727 2 0.0306951 0.236886 0.554395
728 1 0.0388386 0.22123 0.554381
729 1 0.00108382 0.221262 0.596083
730 2 0.00919822 0.236879 0.59604
731 1 0.0273654 0.236882 0.596022
732 2 0.035511 0.221216 0.595946
733 2 0.00441286 0.22124 0.637599
734 1 0.0125295 0.236877 0.637633
735 2 0.0307022 0.236863 0.637591
736 1 0.0388676 0.221232 0.637578
737 1 0.00104635 0.221214 0.67918
738 2 0.00920903 0.236876 0.679257
739 1 0.0273817 0.236899 0.679356
740 2 0.0355311 0.221246 0.679313
741 2 0.00443181 0.221225 0.720847
742 1 0.0125755 0.23686 0.720917
743 2 0.030729 0.23687 0.72089
744 1 0.0388811 0.221268 0.720949
745 1 0.0010684 0.221209 0.76253
746 2 0.00921531 0.236836 0.762487
747 1 0.0273758 0.236872 0.762473
748 2 0.0355173 0.221224 0.762511
749 2 0.0044006 0.221282 0.804075
750 1 0.0125739 0.236841 0.804134
751 2 0.0307182 0.236885 0.804092
752 1 0.0388623 0.221282 0.804249
753 1 0.000989354 0.221221 0.845762
754 2 0.00917342 0.236827 0.845768
755 1 0.0273072 0.236851 0.845912
756 2 0.0354837 0.221194 0.845977
757 2 0.00441015 0.221203 0.88772
758 1 0.0125655 0.236843 0.887629
759 2 0.0307168 0.236831 0.887588
760 1 0.0388727 0.221188 0.887535
761 1 0.00104025 0.221283 0.92926
762 2 0.00915578 0.23684 0.929204
763 1 0.027354 0.236812 0.929155
764 2 0.0355126 0.221199 0.929251
765 2 0.00440371 0.221275 0.970809
766 1 0.0125829 0.236892 0.970842
767 2 0.0307442 0.236877 0.970956
768 1 0.038892 0.221221 0.970917
769 1 0.00103873 0.252465 0.0123081
770 2 0.00922099 0.268122 0.0123283
771 1 0.0273596 0.268095 0.0124674
772 2 0.0355549 0.252473 0.0124978
773 2 0.00448322 0.252429 0.0540679
774 1 0.012658 0.268056 0.0540192
775 2 0.0308036 0.268085 0.0541613
776 1 0.0389482 0.252449 0.0542262
777 1 0.00102283 0.252549 0.0958144
778 2 0.00920878 0.268115 0.0957961
779 1 0.027324 0.268099 0.0957495
780 2 0.0355109 0.252498 0.095796
781 2 0.00442642 0.252506 0.137389
782 1 0.0125925 0.268131 0.137412
783 2 0.0307457 0.268117 0.137452
784 1 0.0388998 0.25248 0.137334
785 1 0.00102394 0.252525 0.179077
786 2 0.00922812 0.268127 0.17905
787 1 0.0273899 0.268082 0.179055
788 2 0.0355028 0.252506 0.179119
789 2 0.00442413 0.252506 0.220806
790 1 0.0125865 0.268153 0.220779
791 2 0.0307237 0.268125 0.220854
792 1 0.0389444 0.252487 0.220872
793 1 0.00100727 0.252503 0.262533
794 2 0.00919451 0.268121 0.262488
795 1 0.0273367 0.268076 0.262416
796 2 0.0354991 0.252428 0.262524
797 2 0.00444411 0.252475 0.304197
798 1 0.0126256 0.268118 0.304203
799 2 0.0307824 0.268096 0.304109
800 1 0.0389445 0.252431 0.304064
801 1 0.00104044 0.252428 0.345864
802 2 0.00920808 0.268092 0.345774
803 1 0.027406 0.268123 0.345765
804 2 0.0355034 0.252489 0.345701
805 2 0.00442356 0.252494 0.387563
806 1 0.0125168 0.268125 0.38739
807 2 0.030675 0.268151 0.387474
808 1 0.0388436 0.252515 0.387487
809 1 0.00103434 0.252498 0.429251
810 2 0.00915074 0.268143 0.429129
811 1 0.0273063 0.268162 0.429197
812 2 0.0354879 0.25252 0.429223
813 2 0.00440489 0.252502 0.470928
814 1 0.0125863 0.268114 0.470923
815 2 0.0307473 0.268123 0.470871
816 1 0.0389271 0.252501 0.470761
817 1 0.00106218 0.252491 0.51263
818 2 0.0091845 0.268137 0.512616
819 1 0.0273437 0.268113 0.512611
820 2 0.0355176 0.252481 0.51257
821 2 0.00435995 0.252522 0.554275
822 1 0.0125772 0.268146 0.554296
823 2 0.0307451 0.268162 0.554281
824 1 0.0388573 0.252523 0.554372
825 1 0.00104269 0.252546 0.59601
826 2 0.00920306 0.268149 0.596021
827 1 0.0273677 0.268135 0.596006
828 2 0.035536 0.252477 0.595978
829 2 0.00439593 0.252491 0.637607
830 1 0.0125296 0.268087 0.637562
831 2 0.0306892 0.268092 0.637634
832 1 0.0388501 0.252493 0.637635
833 1 0.00108403 0.252471 0.679212
834 2 0.00924349 0.26806 0.679163
835 1 0.027422 0.268099 0.679166
836 2 0.0356027 0.252494 0.679212
837 2 0.00444446 0.25249 0.720881
838 1 0.0125583 0.268102 0.720856
839 2 0.0307124 0.268136 0.720883
840 1 0.0388696 0.252524 0.720858
841 1 0.00110431 0.252529 0.762355
842 2 0.00925362 0.268143 0.762452
843 1 0.0274212 0.268141 0.762486
844 2 0.035516 0.252479 0.762564
845 2 0.00437669 0.252483 0.804153
846 1 0.0125392 0.268142 0.804135
847 2 0.0307437 0.268111 0.804104
848 1 0.0388316 0.252486 0.804085
849 1 0.00100783 0.252413 0.845771
850 2 0.00917992 0.268058 0.845704
851 1 0.02732 0.268066 0.84584
852 2 0.0354755 0.252448 0.84592
853 2 0.00439074 0.252493 0.887551
854 1 0.0125447 0.268109 0.887459
855 2 0.0307049 0.268062 0.887547
856 1 0.0388813 0.252455 0.887662
857 1 0.00103607 0.252526 0.929206
858 2 0.00918839 0.268155 0.929164
859 1 0.0273625 0.268133 0.929165
860 2 0.0355217 0.252474 0.929168