ITEM: TIMESTEP
600000
ITEM: NUMBER OF ATOMS
58368
ITEM: BOX BOUNDS xy xz yz pp pp pp
-3.9006362984379528e+01 4.3344360484379528e+01 0.0000000000000000e+00
-4.3539333158342643e+01 4.8548434958356822e+01 0.0000000000000000e+00
-3.1484322062232060e+01 4.4756325262218034e+01 0.0000000000000000e+00
ITEM: ATOMS id type xs ys zs
1 1 0.00138971 0.00248233 0.0124221
2 2 0.00970389 0.0181076 0.0125278
3 1 0.0277442 0.0181462 0.0124685
4 2 0.03601 0.00253177 0.0124607
5 2 0.00395947 0.00248278 0.0541736
6 1 0.0122318 0.0181283 0.054179
7 2 0.0302483 0.0180999 0.0541942
8 1 0.0385403 0.00249307 0.0541937
9 1 0.0014374 0.00246408 0.095837
10 2 0.00971141 0.0180485 0.0959054
11 1 0.0277408 0.018111 0.0957933
12 2 0.0360199 0.00250109 0.0958425
13 2 0.0039852 0.00253078 0.137472
14 1 0.012297 0.0181816 0.137518
15 2 0.0303376 0.0181251 0.137613
16 1 0.0385887 0.00253424 0.137627
17 1 0.00142004 0.00248472 0.179277
18 2 0.0096901 0.0181375 0.179201
19 1 0.0277544 0.0181223 0.179183
20 2 0.0360442 0.00253671 0.179106
21 2 0.00392476 0.00249311 0.220839
22 1 0.0122288 0.018097 0.220853
23 2 0.0302705 0.0181317 0.220885
24 1 0.0385287 0.0024604 0.220915
25 1 0.00142481 0.00249364 0.262477
26 2 0.00969533 0.0181544 0.262495
27 1 0.0277326 0.018151 0.262472
28 2 0.0360014 0.00254978 0.26251
29 2 0.00393079 0.00251638 0.304299
30 1 0.0122007 0.0181298 0.30427
31 2 0.0302443 0.0181171 0.304261
32 1 0.0384989 0.00248604 0.304293
33 1 0.00137751 0.00253425 0.345819
34 2 0.00967763 0.018194 0.345948
35 1 0.0277062 0.0181793 0.345943
36 2 0.036026 0.00255068 0.345907
37 2 0.00393184 0.00251274 0.387518
38 1 0.012257 0.0181328 0.387549
39 2 0.0302805 0.0181613 0.387531
40 1 0.0385945 0.00248502 0.387492
41 1 0.00139435 0.00248301 0.429222
42 2 0.00969375 0.0181184 0.429164
43 1 0.0277521 0.0181095 0.429163
44 2 0.0360326 0.00244928 0.429176
45 2 0.0039496 0.00248947 0.470856
46 1 0.0122085 0.018099 0.470824
47 2 0.0302479 0.0180587 0.470777
48 1 0.0385673 0.0024803 0.470771
49 1 0.0013515 0.00251106 0.512564
50 2 0.00965088 0.0181036 0.512495
51 1 0.027707 0.0181463 0.512522
52 2 0.0360074 0.00252466 0.512535
53 2 0.00393835 0.00249213 0.554228
54 1 0.0122285 0.0181395 0.554185
55 2 0.0302663 0.0181205 0.554121
56 1 0.0385082 0.00249398 0.554095
57 1 0.00138973 0.00245133 0.595901
58 2 0.00964211 0.0181044 0.595868
59 1 0.0276953 0.0180843 0.595869
60 2 0.0360053 0.00246607 0.595792
61 2 0.00394288 0.00247699 0.63753
62 1 0.0122247 0.0180926 0.637542
63 2 0.0302774 0.0181213 0.637515
64 1 0.0385397 0.00248883 0.637506
65 1 0.00142616 0.00249429 0.679113
66 2 0.00971567 0.0181068 0.679137
67 1 0.0277362 0.0180751 0.679161
68 2 0.0359955 0.00244045 0.679214
69 2 0.00395677 0.00244931 0.720878
70 1 0.0122474 0.0180744 0.720926
71 2 0.0303022 0.0180638 0.720831
72 1 0.0385625 0.00246002 0.720881
73 1 0.00135072 0.00247083 0.762464
74 2 0.00960419 0.0181289 0.76249
75 1 0.0276569 0.0181534 0.762575
76 2 0.0359603 0.00251584 0.762535
77 2 0.00390341 0.00250131 0.804164
78 1 0.0121392 0.0181021 0.80417
79 2 0.0301821 0.0181193 0.80418
80 1 0.0384552 0.00248782 0.804237
81 1 0.00141921 0.0024934 0.845829
82 2 0.00968131 0.018099 0.845826
83 1 0.0276992 0.0181579 0.845843
84 2 0.0359899 0.00255526 0.845791
85 2 0.00397123 0.00251296 0.887511
86 1 0.0122522 0.0181057 0.887565
87 2 0.0302766 0.0181064 0.887561
88 1 0.0385804 0.00251008 0.887593
89 1 0.00135929 0.00249081 0.929222
90 2 0.00966089 0.0181281 0.929202
91 1 0.0277086 0.0181089 0.929148
92 2 0.0359506 0.00253121 0.9292
93 2 0.00397146 0.00248819 0.970884
94 1 0.0122421 0.0181508 0.970787
95 2 0.0302893 0.018163 0.970765
96 1 0.0385555 0.00252344 0.970793
97 1 0.00138143 0.0337176 0.0124637
98 2 0.00966923 0.0493665 0.0125088
99 1 0.0276791 0.0493836 0.0124117
100 2 0.0359695 0.0337654 0.0123858
101 2 0.00396645 0.0337366 0.054224
102 1 0.012249 0.0493806 0.0542134
103 2 0.0302766 0.0493513 0.0541535
104 1 0.0385402 0.0337284 0.0541066
105 1 0.00143327 0.0336867 0.0959191
106 2 0.00967367 0.049313 0.0958594
107 1 0.0277315 0.0493609 0.0958295
108 2 0.0360154 0.033772 0.0957416
109 2 0.00404065 0.033782 0.13761
110 1 0.0122511 0.0494119 0.137655
111 2 0.0302973 0.0494008 0.137686
112 1 0.0386114 0.033757 0.137671
113 1 0.00143065 0.0337704 0.179152
114 2 0.00970228 0.0494193 0.179225
115 1 0.0277421 0.0494121 0.179347
116 2 0.0360026 0.033767 0.17929
117 2 0.00393013 0.0337171 0.220831
118 1 0.0122111 0.0493263 0.220817
119 2 0.0302316 0.0493625 0.220963
120 1 0.0385319 0.0337829 0.220965
121 1 0.00138978 0.033778 0.262484
122 2 0.0096746 0.0493808 0.26256
123 1 0.0277164 0.049385 0.262539
124 2 0.0360313 0.033746 0.262454
125 2 0.00395952 0.0337401 0.304273
126 1 0.0122588 0.0493748 0.304434
127 2 0.0302675 0.0493761 0.304347
128 1 0.0384967 0.0337625 0.304217
129 1 0.00144311 0.0337824 0.345915
130 2 0.00968582 0.0493893 0.345933
131 1 0.0277222 0.0494179 0.345918
132 2 0.0359867 0.0338428 0.345958
133 2 0.00397758 0.0336958 0.387527
134 1 0.0122618 0.0493377 0.387563
135 2 0.0302934 0.0493497 0.387575
136 1 0.0385852 0.0337529 0.387521
137 1 0.00142901 0.0337107 0.429098
138 2 0.00967561 0.0493319 0.429217
139 1 0.0277154 0.0493222 0.42926
140 2 0.0360065 0.0337264 0.429243
141 2 0.00395436 0.033729 0.470803
142 1 0.0122542 0.0493303 0.470766
143 2 0.0302529 0.0493261 0.470797
144 1 0.0385309 0.0336819 0.470736
145 1 0.00134477 0.0337117 0.512617
146 2 0.00961284 0.0493983 0.512621
147 1 0.0276546 0.0493819 0.512533
148 2 0.0359369 0.0337414 0.512483
149 2 0.00390864 0.0337921 0.554226
150 1 0.0122116 0.0493831 0.554085
151 2 0.0302828 0.0493535 0.554007
152 1 0.0385572 0.0337308 0.554098
153 1 0.00137072 0.0337295 0.595968
154 2 0.00963646 0.0493619 0.595843
155 1 0.0276436 0.0494018 0.595725
156 2 0.0359404 0.0337317 0.595823
157 2 0.00396274 0.0337451 0.637648
158 1 0.0122168 0.0493834 0.637644
159 2 0.0302616 0.0493781 0.637561
160 1 0.0385428 0.0337337 0.637544
161 1 0.00143835 0.0337127 0.679274
162 2 0.00974601 0.049381 0.679249
163 1 0.0277581 0.0493438 0.679273
164 2 0.0360129 0.0337072 0.679216
165 2 0.00399299 0.0336623 0.720848
166 1 0.0122605 0.0493402 0.7208
167 2 0.0302908 0.0493728 0.720837
168 1 0.0385745 0.033735 0.720805
169 1 0.0013331 0.0337812 0.762435
170 2 0.0096095 0.0493429 0.762473
171 1 0.0276298 0.0493475 0.762551
172 2 0.0359144 0.0337738 0.762593
173 2 0.00387252 0.0337334 0.804147
174 1 0.0121769 0.0493664 0.804209
175 2 0.0302281 0.0493418 0.804271
176 1 0.0385027 0.0337227 0.80431
177 1 0.00141482 0.0337293 0.845774
178 2 0.00972478 0.0493589 0.845813
179 1 0.0277402 0.0493393 0.845938
180 2 0.0359692 0.0337696 0.845861
181 2 0.0039709 0.0336766 0.887612
182 1 0.0122454 0.0493164 0.887569
183 2 0.0302897 0.0493343 0.887539
184 1 0.0385378 0.0337479 0.887516
185 1 0.00136179 0.0337071 0.929237
186 2 0.00963407 0.0493584 0.929204
187 1 0.0276888 0.049364 0.929303
188 2 0.03597 0.0337511 0.929207
189 2 0.00393123 0.0337067 0.970871
190 1 0.0122059 0.0493523 0.97096
191 2 0.0302676 0.0493803 0.970898
192 1 0.0385418 0.0337762 0.97075
193 1 0.00138274 0.0649929 0.0125669
194 2 0.00967114 0.0805958 0.0124353
195 1 0.027706 0.0806351 0.0125019
196 2 0.035945 0.0649939 0.01252
197 2 0.00399157 0.064988 0.0542846
198 1 0.0122218 0.0806506 0.0542001
199 2 0.0302593 0.0806023 0.054124
200 1 0.0385545 0.064981 0.0541315
201 1 0.00142258 0.0649409 0.0959217
202 2 0.00969113 0.080646 0.0959937
203 1 0.0277127 0.0806285 0.0958336
204 2 0.0359699 0.064966 0.0959044
205 2 0.00396121 0.0649789 0.137552
206 1 0.0122528 0.0805973 0.137612
207 2 0.0302988 0.0806159 0.13766
208 1 0.0385686 0.0650009 0.137627
209 1 0.00140732 0.0650465 0.179382
210 2 0.00965853 0.0806681 0.179399
211 1 0.0276766 0.0806362 0.179437
212 2 0.0359958 0.0650227 0.179406
213 2 0.00394933 0.0650186 0.220919
214 1 0.0122329 0.0806294 0.220961
215 2 0.0302678 0.0806288 0.221014
216 1 0.0385714 0.0649939 0.221048
217 1 0.00141667 0.0650245 0.26258
218 2 0.00970139 0.0806592 0.262632
219 1 0.027721 0.0806455 0.262568
220 2 0.0360255 0.065018 0.262502
221 2 0.00395046 0.0650199 0.304366
222 1 0.0122194 0.0806445 0.304449
223 2 0.0302625 0.0806401 0.304308
224 1 0.0385167 0.064976 0.304238
225 1 0.00141767 0.0650588 0.346017
226 2 0.00967187 0.0806563 0.346135
227 1 0.0277078 0.0806752 0.346004
228 2 0.0359487 0.0650424 0.346001
229 2 0.00400365 0.0649978 0.387653
230 1 0.0122594 0.0806172 0.387685
231 2 0.0302819 0.0806101 0.387617
232 1 0.0385762 0.0649443 0.387574
233 1 0.00141335 0.0649703 0.429283
234 2 0.00964299 0.0805959 0.429353
235 1 0.0276591 0.0805708 0.429317
236 2 0.0359446 0.0649452 0.429227
237 2 0.00396949 0.0650027 0.470916
238 1 0.0122079 0.0806092 0.470948
239 2 0.0302532 0.080573 0.470818
240 1 0.0385485 0.0649474 0.470743
241 1 0.00134329 0.0649957 0.51256
242 2 0.0096091 0.0806168 0.5125
243 1 0.0276475 0.0806359 0.512474
244 2 0.035908 0.0649965 0.512489
245 2 0.00393841 0.0650071 0.554229
246 1 0.0122469 0.0805736 0.554217
247 2 0.0302995 0.0805771 0.554102
248 1 0.0386028 0.0649643 0.554016
249 1 0.00132689 0.0649842 0.595845
250 2 0.00962639 0.0806048 0.595895
251 1 0.027639 0.080638 0.595858
252 2 0.0359205 0.065027 0.595729
253 2 0.00395557 0.0650036 0.637564
254 1 0.012244 0.0806174 0.637574
255 2 0.0302506 0.0806391 0.637511
256 1 0.0385326 0.0650087 0.637538
257 1 0.0014516 0.0650014 0.679244
258 2 0.00969955 0.0806233 0.67931
259 1 0.0277756 0.0806057 0.679334
260 2 0.036048 0.0649674 0.679246
261 2 0.00394846 0.0649305 0.720807
262 1 0.0122241 0.0805892 0.720865
263 2 0.030267 0.0805814 0.720783
264 1 0.0385515 0.0649635 0.720769
265 1 0.00131379 0.0649815 0.76248
266 2 0.00964246 0.0805914 0.762595
267 1 0.0276874 0.080571 0.762615
268 2 0.0359464 0.0649499 0.762579
269 2 0.00392723 0.0649786 0.804082
270 1 0.0121974 0.0806327 0.804137
271 2 0.0302177 0.0806223 0.804177
272 1 0.0385013 0.0649923 0.804293
273 1 0.00145213 0.0650195 0.845845
274 2 0.00971188 0.080647 0.845866
275 1 0.0277456 0.080581 0.845914
276 2 0.036002 0.0649407 0.845871
277 2 0.00400343 0.0649452 0.88755
278 1 0.0122497 0.0805591 0.887552
279 2 0.0303024 0.0805746 0.887519
280 1 0.0385878 0.0649314 0.887489
281 1 0.00139143 0.064998 0.929231
282 2 0.00971376 0.0806313 0.92916
283 1 0.0277317 0.0806509 0.929157
284 2 0.0359874 0.0650111 0.929197
285 2 0.00394825 0.0650102 0.970942
286 1 0.012236 0.0806481 0.971093
287 2 0.0302428 0.0806401 0.971117
288 1 0.0385343 0.0650151 0.971002
289 1 0.00138492 0.0961987 0.0124867
290 2 0.00966472 0.111836 0.0125246
291 1 0.0276974 0.111851 0.0125652
292 2 0.0360001 0.0962453 0.0125268
293 2 0.00395902 0.0962354 0.0541282
294 1 0.0122298 0.11188 0.0540791
295 2 0.03024 0.111863 0.0541015
296 1 0.0385378 0.0962598 0.0541981
297 1 0.00138049 0.0962489 0.0959657
298 2 0.00969457 0.111838 0.0958568
299 1 0.027759 0.111807 0.0958233
300 2 0.0360108 0.0962743 0.0958384
301 2 0.00396638 0.0962311 0.137569
302 1 0.0122474 0.111883 0.137568
303 2 0.030276 0.111904 0.137604
304 1 0.0385638 0.0962463 0.137625
305 1 0.00139967 0.0962939 0.179315
306 2 0.00968444 0.111913 0.17938
307 1 0.0277076 0.111853 0.179432
308 2 0.0360041 0.0962515 0.179375
309 2 0.0039436 0.0962737 0.221003
310 1 0.0122529 0.111906 0.221021
311 2 0.0302792 0.111842 0.220974
312 1 0.0385734 0.0962345 0.221063
313 1 0.00143113 0.096303 0.262589
314 2 0.0097083 0.111896 0.26263
315 1 0.0277485 0.111877 0.262648
316 2 0.0360169 0.0962556 0.262642
317 2 0.00400875 0.0962819 0.304448
318 1 0.0122599 0.111971 0.304434
319 2 0.0302606 0.111939 0.304426
320 1 0.038579 0.0963118 0.304351
321 1 0.00136976 0.0963079 0.346088
322 2 0.00963327 0.111913 0.345964
323 1 0.0276874 0.111888 0.345937
324 2 0.0359981 0.0962826 0.345984
325 2 0.00397126 0.0962221 0.387662
326 1 0.0122602 0.111933 0.387701
327 2 0.0302918 0.11188 0.387678
328 1 0.0385832 0.096251 0.387649
329 1 0.0013916 0.0962419 0.429323
330 2 0.00969261 0.111855 0.429323
331 1 0.027749 0.111841 0.429276
332 2 0.0359984 0.0961696 0.429322
333 2 0.00394882 0.0962524 0.471079
334 1 0.0122491 0.111848 0.471155
335 2 0.0302847 0.111877 0.47101
336 1 0.0385125 0.0962361 0.470879
337 1 0.001364 0.0962007 0.512531
338 2 0.00960743 0.111868 0.512534
339 1 0.0276697 0.111811 0.512543
340 2 0.0359758 0.0962173 0.512489
341 2 0.00394498 0.096188 0.554196
342 1 0.0122147 0.111816 0.554196
343 2 0.030275 0.111807 0.554179
344 1 0.0385614 0.0962335 0.55416
345 1 0.00136177 0.0962036 0.595913
346 2 0.00967118 0.111805 0.595978
347 1 0.0277 0.111828 0.595868
348 2 0.0359656 0.0962386 0.595854
349 2 0.00394724 0.0962175 0.637594
350 1 0.0122317 0.111818 0.637576
351 2 0.0302775 0.111866 0.637528
352 1 0.0385082 0.0962503 0.637573
353 1 0.00141726 0.0962355 0.679279
354 2 0.00967952 0.111848 0.679194
355 1 0.02772 0.111862 0.679138
356 2 0.0360443 0.0962199 0.679259
357 2 0.00398 0.0962121 0.720977
358 1 0.0122433 0.111829 0.72092
359 2 0.0302623 0.111804 0.720773
360 1 0.038569 0.0961912 0.720775
361 1 0.00136359 0.0962647 0.762566
362 2 0.00965034 0.111842 0.762602
363 1 0.0276927 0.111801 0.762564
364 2 0.0359578 0.0961833 0.762568
365 2 0.00390357 0.0962822 0.804144
366 1 0.0122009 0.111909 0.804199
367 2 0.0302314 0.111867 0.804258
368 1 0.0385051 0.0962319 0.804226
369 1 0.0013943 0.0962542 0.84593
370 2 0.009635 0.111852 0.845908
371 1 0.0277033 0.111842 0.845844
372 2 0.0359869 0.096224 0.845881
373 2 0.004009 0.0962191 0.887547
374 1 0.0122857 0.111842 0.88755
375 2 0.0303127 0.111832 0.887527
376 1 0.0385314 0.0962172 0.887579
377 1 0.0013852 0.0962325 0.929225
378 2 0.00967285 0.111854 0.929217
379 1 0.0277138 0.111865 0.929203
380 2 0.0360028 0.0962638 0.929249
381 2 0.00398207 0.0962204 0.971054
382 1 0.0122167 0.111898 0.971088
383 2 0.0302544 0.111922 0.971014
384 1 0.0385291 0.0962401 0.971079
385 1 0.00136776 0.127476 0.0125683
386 2 0.00964898 0.143093 0.0126974
387 1 0.027688 0.143085 0.0126859
388 2 0.0359767 0.127494 0.0126488
389 2 0.00394529 0.127482 0.0541365
390 1 0.0122255 0.143103 0.0542362
391 2 0.0302775 0.143092 0.0542367
392 1 0.0385097 0.127459 0.0541721
393 1 0.00141034 0.127456 0.0959057
394 2 0.00971204 0.143112 0.0958806
395 1 0.0277365 0.14312 0.0959683
396 2 0.0360274 0.127462 0.095945
397 2 0.00394402 0.127498 0.137558
398 1 0.0122077 0.143107 0.137566
399 2 0.0302471 0.143143 0.13768
400 1 0.038528 0.127541 0.137565
401 1 0.00139712 0.127559 0.179277
402 2 0.00966622 0.143155 0.179345
403 1 0.0277109 0.143163 0.179341
404 2 0.0360064 0.127519 0.179417
405 2 0.00398723 0.127495 0.220999
406 1 0.0122074 0.143151 0.221022
407 2 0.0302907 0.143118 0.221
408 1 0.038578 0.127474 0.22099
409 1 0.00144744 0.127485 0.262641
410 2 0.00971589 0.143105 0.262667
411 1 0.0277565 0.143133 0.262661
412 2 0.0360137 0.127522 0.262643
413 2 0.00393697 0.127565 0.304476
414 1 0.0122096 0.143189 0.304351
415 2 0.0302303 0.143156 0.304335
416 1 0.03856 0.127516 0.304302
417 1 0.00139125 0.127516 0.34609
418 2 0.00966158 0.143166 0.346098
419 1 0.0277079 0.143171 0.346007
420 2 0.0359951 0.127512 0.345905
421 2 0.0039967 0.127531 0.387721
422 1 0.0122533 0.143159 0.387676
423 2 0.0303141 0.143179 0.387724
424 1 0.0385729 0.12751 0.387687
425 1 0.00138388 0.1275 0.429464
426 2 0.00967385 0.143092 0.429376
427 1 0.0277208 0.143126 0.42936
428 2 0.0360226 0.127489 0.429351
429 2 0.0039551 0.127476 0.471026
430 1 0.0122225 0.143123 0.471093
431 2 0.0302432 0.143099 0.471066
432 1 0.0385433 0.127506 0.470879
433 1 0.00136352 0.127483 0.512625
434 2 0.00963616 0.14317 0.512679
435 1 0.0276717 0.143119 0.51265
436 2 0.0359642 0.127451 0.512557
437 2 0.00389526 0.127431 0.554155
438 1 0.012205 0.143096 0.554101
439 2 0.0302295 0.143059 0.554061
440 1 0.0384968 0.12743 0.554096
441 1 0.00136998 0.127454 0.595918
442 2 0.00970765 0.143082 0.595847
443 1 0.0276821 0.143112 0.595819
444 2 0.0359603 0.127467 0.595736
445 2 0.00394718 0.12746 0.637549
446 1 0.0122272 0.143128 0.637527
447 2 0.0302383 0.143159 0.637527
448 1 0.0385345 0.127497 0.6376
449 1 0.00138709 0.127464 0.67924
450 2 0.00967086 0.143106 0.679241
451 1 0.0277405 0.143131 0.679122
452 2 0.0359777 0.127481 0.679161
453 2 0.00401996 0.12747 0.72089
454 1 0.0122148 0.14308 0.720889
455 2 0.0302484 0.14308 0.720801
456 1 0.0384822 0.127423 0.72069
457 1 0.00140925 0.127456 0.762586
458 2 0.00966581 0.143065 0.762582
459 1 0.0276658 0.143076 0.762487
460 2 0.0359561 0.127446 0.762552
461 2 0.00392792 0.127535 0.804072
462 1 0.012218 0.143114 0.804101
463 2 0.0302566 0.14314 0.804233
464 1 0.0385438 0.127474 0.804329
465 1 0.00136283 0.127453 0.845911
466 2 0.00960844 0.143131 0.845831
467 1 0.0276696 0.143117 0.845697
468 2 0.0359483 0.127475 0.845729
469 2 0.00401215 0.127493 0.887629
470 1 0.0122687 0.143119 0.887624
471 2 0.0302949 0.143107 0.887554
472 1 0.0385351 0.127489 0.887475
473 1 0.00141456 0.127476 0.929252
474 2 0.00966699 0.143103 0.929177
475 1 0.0277016 0.143115 0.92929
476 2 0.0359842 0.127502 0.929245
477 2 0.00396193 0.127497 0.970967
478 1 0.0122316 0.143131 0.970968
479 2 0.0302976 0.143163 0.970941
480 1 0.0385487 0.127519 0.970922
481 1 0.00140032 0.158725 0.0126795
482 2 0.00969681 0.174366 0.012664
483 1 0.0277739 0.174356 0.0127195
484 2 0.0359969 0.158684 0.0127269
485 2 0.00396324 0.158725 0.0542556
486 1 0.0122493 0.174375 0.0542582
487 2 0.0302927 0.174376 0.0542539
488 1 0.0385479 0.158734 0.0543271
489 1 0.00145102 0.158735 0.0958378
490 2 0.00967352 0.174351 0.0959103
491 1 0.0276855 0.17441 0.095963
492 2 0.0359841 0.158759 0.0960274
493 2 0.00395688 0.158777 0.137668
494 1 0.0121695 0.174414 0.137595
495 2 0.0302014 0.174372 0.137585
496 1 0.038493 0.158751 0.13772
497 1 0.00137676 0.158717 0.179271
498 2 0.00967331 0.174383 0.179299
499 1 0.02771 0.174399 0.179347
500 2 0.0359697 0.158746 0.179285
501 2 0.00396982 0.158769 0.221137
502 1 0.0122268 0.174397 0.221072
503 2 0.0302515 0.174374 0.221003
504 1 0.0385429 0.158742 0.221041
505 1 0.00145944 0.158766 0.262651
506 2 0.00969653 0.174346 0.262667
507 1 0.0277138 0.174359 0.262748
508 2 0.0360172 0.158743 0.262722
509 2 0.00398329 0.158791 0.304329
510 1 0.0122455 0.174417 0.304407
511 2 0.0303004 0.174382 0.304306
512 1 0.0385485 0.15877 0.304261
513 1 0.00137964 0.158781 0.346145
514 2 0.00962349 0.174347 0.346037
515 1 0.0276699 0.174387 0.346043
516 2 0.0359819 0.158761 0.345957
517 2 0.00396178 0.158782 0.387626
518 1 0.0122852 0.174391 0.387691
519 2 0.0302988 0.174378 0.387683
520 1 0.0385811 0.158769 0.387766
521 1 0.00136182 0.158748 0.429337
522 2 0.00963918 0.174399 0.429236
523 1 0.0277004 0.174389 0.429343
524 2 0.0359979 0.158726 0.429381
525 2 0.00394423 0.158714 0.47097
526 1 0.0122199 0.17434 0.470939
527 2 0.0302776 0.174335 0.470939
528 1 0.0385512 0.158744 0.470972
529 1 0.00137595 0.158771 0.512656
530 2 0.00965263 0.174399 0.512614
531 1 0.0277187 0.174358 0.512681
532 2 0.0359428 0.158718 0.512574
533 2 0.0039354 0.158745 0.554158
534 1 0.012189 0.174353 0.554216
535 2 0.0302319 0.174336 0.554154
536 1 0.0385091 0.158706 0.55412
537 1 0.00137831 0.158691 0.595858
538 2 0.00967992 0.174313 0.59587
539 1 0.0277691 0.174294 0.595795
540 2 0.0359953 0.1587 0.595791
541 2 0.00393536 0.158713 0.637484
542 1 0.0121744 0.174377 0.637448
543 2 0.0302295 0.174386 0.637366
544 1 0.038513 0.158722 0.637457
545 1 0.00141098 0.158731 0.679178
546 2 0.00964979 0.174416 0.679107
547 1 0.0277178 0.174388 0.679187
548 2 0.0360184 0.15877 0.679148
549 2 0.00391404 0.158669 0.720829
550 1 0.012173 0.174318 0.720722
551 2 0.0302177 0.174325 0.720839
552 1 0.0385171 0.158714 0.720793
553 1 0.00143478 0.158725 0.762511
554 2 0.00968879 0.174351 0.762457
555 1 0.0277279 0.174365 0.76245
556 2 0.0360014 0.158704 0.762507
557 2 0.00398212 0.158763 0.804156
558 1 0.0122602 0.174396 0.80428
559 2 0.0303239 0.17439 0.80428
560 1 0.0385311 0.158727 0.804266
561 1 0.00135015 0.158776 0.84597
562 2 0.00965237 0.174417 0.845965
563 1 0.0276922 0.17439 0.845917
564 2 0.0359442 0.158771 0.84584
565 2 0.00397234 0.15872 0.887618
566 1 0.0122843 0.174343 0.887598
567 2 0.0303121 0.174337 0.887564
568 1 0.0385584 0.158723 0.887553
569 1 0.0014038 0.158753 0.929196
570 2 0.00963304 0.174406 0.929297
571 1 0.0276499 0.174378 0.929322
572 2 0.0359576 0.158725 0.929241
573 2 0.00397578 0.158731 0.971025
574 1 0.0122341 0.174363 0.971042
575 2 0.0302821 0.174389 0.971003
576 1 0.0385589 0.15876 0.970921
577 1 0.00144833 0.189977 0.0127436
578 2 0.00970889 0.205642 0.0127256
579 1 0.027752 0.205633 0.0127368
580 2 0.0360397 0.190051 0.0127356
581 2 0.0039617 0.189999 0.0543178
582 1 0.0122773 0.205598 0.0543396
583 2 0.0303082 0.205576 0.0543486
584 1 0.0386036 0.189923 0.0543388
585 1 0.00142628 0.18995 0.0958744
586 2 0.00965453 0.205656 0.095953
587 1 0.0276897 0.205674 0.0959353
588 2 0.0359633 0.190028 0.095868
589 2 0.00393959 0.190047 0.137605
590 1 0.0122209 0.205667 0.137592
591 2 0.0302576 0.205684 0.13754
592 1 0.0385326 0.190016 0.137579
593 1 0.00139989 0.190019 0.179222
594 2 0.00967052 0.205622 0.179335
595 1 0.0277215 0.205676 0.179388
596 2 0.036007 0.190002 0.179501
597 2 0.00398165 0.190014 0.221066
598 1 0.0122291 0.205605 0.22096
599 2 0.0302629 0.205594 0.220936
600 1 0.0385701 0.18995 0.220988
601 1 0.00141479 0.189968 0.262667
602 2 0.00969901 0.205601 0.262745
603 1 0.0277709 0.205619 0.262665
604 2 0.035976 0.189961 0.262639
605 2 0.00394218 0.190013 0.304323
606 1 0.0122057 0.205658 0.304152
607 2 0.0302637 0.205666 0.304126
608 1 0.0385641 0.190039 0.304225
609 1 0.00140079 0.189982 0.346011
610 2 0.00968557 0.205633 0.346054
611 1 0.0276842 0.205661 0.345991
612 2 0.0359479 0.190009 0.345979
613 2 0.00397891 0.190032 0.387723
614 1 0.0122429 0.205676 0.387653
615 2 0.0302953 0.205678 0.387703
616 1 0.0385791 0.190019 0.387736
617 1 0.00133317 0.189986 0.429244
618 2 0.00961464 0.205593 0.429315
619 1 0.027676 0.205622 0.429252
620 2 0.0359971 0.190006 0.429318
621 2 0.00392279 0.189948 0.470925
622 1 0.0122219 0.205592 0.471032
623 2 0.0302788 0.205567 0.470954
624 1 0.0385843 0.18994 0.470961
625 1 0.0013565 0.19003 0.512647
626 2 0.00961795 0.205626 0.512673
627 1 0.0276594 0.205625 0.512657
628 2 0.035958 0.189999 0.512649
629 2 0.00392959 0.189969 0.554244
630 1 0.0122099 0.205637 0.554251
631 2 0.0301989 0.205587 0.554174
632 1 0.0384983 0.18995 0.554218
633 1 0.00140498 0.18993 0.59585
634 2 0.00966965 0.205547 0.595816
635 1 0.0277286 0.205546 0.595889
636 2 0.03603 0.189921 0.595858
637 2 0.00393712 0.190009 0.637484
638 1 0.0122224 0.205658 0.637386
639 2 0.030227 0.205643 0.637392
640 1 0.0384925 0.190015 0.637384
641 1 0.00141185 0.19003 0.679063
642 2 0.00970528 0.205597 0.679064
643 1 0.0277187 0.205617 0.67909
644 2 0.0360181 0.190004 0.679192
645 2 0.00390682 0.189959 0.720719
646 1 0.0122021 0.205538 0.720795
647 2 0.0302591 0.205523 0.720819
648 1 0.0385494 0.189939 0.720816
649 1 0.00141885 0.19 0.762408
650 2 0.00967631 0.205611 0.762412
651 1 0.0277126 0.205656 0.762471
652 2 0.035958 0.190001 0.762469
653 2 0.00399982 0.190006 0.804188
654 1 0.0121702 0.205622 0.804131
655 2 0.0302149 0.205622 0.804173
656 1 0.0385413 0.189987 0.804324
657 1 0.00136565 0.190007 0.845804
658 2 0.00965745 0.205571 0.845926
659 1 0.0277203 0.20557 0.846025
660 2 0.0359838 0.190009 0.84587
661 2 0.0039592 0.18997 0.887614
662 1 0.0122428 0.205592 0.887593
663 2 0.0302864 0.205617 0.887541
664 1 0.0385539 0.189974 0.887505
665 1 0.00135439 0.189965 0.929255
666 2 0.00965706 0.205584 0.929208
667 1 0.0277062 0.205605 0.929285
668 2 0.0359617 0.189959 0.929273
669 2 0.00396078 0.190055 0.970954
670 1 0.0122763 0.205661 0.970952
671 2 0.0302873 0.205664 0.970823
672 1 0.038575 0.189996 0.970901
673 1 0.00142597 0.221258 0.0126519
674 2 0.00966411 0.236915 0.0127244
675 1 0.0277156 0.236897 0.0127039
676 2 0.036002 0.221275 0.0126619
677 2 0.00401734 0.221217 0.0543283
678 1 0.0122491 0.23684 0.0543273
679 2 0.030293 0.236838 0.054341
680 1 0.0385848 0.221217 0.0542924
681 1 0.00139997 0.221272 0.0959727
682 2 0.00969761 0.236916 0.095886
683 1 0.0277316 0.236905 0.0958575
684 2 0.0359691 0.221264 0.0959423
685 2 0.0039643 0.221314 0.137594
686 1 0.0122446 0.236915 0.137583
687 2 0.0302715 0.236945 0.137504
688 1 0.0385337 0.221306 0.137513
689 1 0.00136217 0.221282 0.179342
690 2 0.00970277 0.236883 0.179312
691 1 0.0277427 0.236876 0.179317
692 2 0.0359916 0.221239 0.179376
693 2 0.00393877 0.221256 0.22092
694 1 0.0122044 0.236841 0.22091
695 2 0.030255 0.236835 0.220925
696 1 0.0385336 0.221253 0.220877
697 1 0.00142036 0.221208 0.262592
698 2 0.00969425 0.236888 0.262687
699 1 0.0277247 0.236846 0.262609
700 2 0.0360346 0.221227 0.262591
701 2 0.0039224 0.221287 0.304217
702 1 0.0122267 0.236903 0.304287
703 2 0.0302722 0.236937 0.304337
704 1 0.0385534 0.221314 0.304245
705 1 0.00139575 0.221233 0.345948
706 2 0.00966051 0.236867 0.34592
707 1 0.0277169 0.236892 0.346003
708 2 0.0359707 0.221243 0.346013
709 2 0.00395603 0.221271 0.387611
710 1 0.0122375 0.236862 0.38763
711 2 0.0302749 0.236866 0.387743
712 1 0.0385502 0.22126 0.387846
713 1 0.00136031 0.221219 0.429302
714 2 0.0096311 0.236836 0.429416
715 1 0.0276894 0.236855 0.429374
716 2 0.0359769 0.221238 0.42929
717 2 0.0039462 0.221206 0.471005
718 1 0.0122112 0.236827 0.47102
719 2 0.0302429 0.236816 0.470979
720 1 0.0385684 0.221184 0.470912
721 1 0.00132583 0.221227 0.512636
722 2 0.00959118 0.23689 0.512533
723 1 0.0276544 0.236888 0.512571
724 2 0.035962 0.221228 0.512641
725 2 0.00394211 0.221208 0.554232
726 1 0.0122171 0.236849 0.554175
727 2 0.0302405 0.23679 0.554234
728 1 0.0385046 0.221164 0.554222
729 1 0.00138964 0.221137 0.595778
730 2 0.0096283 0.236777 0.595813
731 1 0.0276451 0.236793 0.595779
732 2 0.035978 0.221184 0.595888
733 2 0.00395243 0.221275 0.637472
734 1 0.0122431 0.236863 0.637479
735 2 0.0302789 0.236887 0.637506
736 1 0.0385573 0.221294 0.637479
737 1 0.00142138 0.221196 0.679249
738 2 0.00968018 0.236814 0.679256
739 1 0.0277137 0.236879 0.679153
740 2 0.036007 0.221247 0.679087
741 2 0.00389043 0.221168 0.720808
742 1 0.0121831 0.236789 0.7208
743 2 0.0302514 0.236795 0.720799
744 1 0.0385305 0.221146 0.720851
745 1 0.00139042 0.221272 0.76243
746 2 0.0096455 0.236858 0.762505
747 1 0.0276664 0.23689 0.762505
748 2 0.0359521 0.221281 0.762521
749 2 0.00393165 0.221279 0.804182
750 1 0.0122004 0.236877 0.804192
751 2 0.0302216 0.236837 0.804217
752 1 0.0385118 0.221248 0.804249
753 1 0.00141177 0.221232 0.845866
754 2 0.00963323 0.236867 0.846009
755 1 0.0276919 0.236841 0.845937
756 2 0.035965 0.221202 0.846092
757 2 0.00395873 0.221234 0.887631
758 1 0.0122284 0.23683 0.887646
759 2 0.0302509 0.236838 0.887644
760 1 0.038548 0.221231 0.887556
761 1 0.00136919 0.221188 0.929249
762 2 0.00965419 0.236831 0.929203
763 1 0.0276778 0.236852 0.929287
764 2 0.0360016 0.221207 0.929312
765 2 0.00394313 0.22125 0.970899
766 1 0.0122577 0.236864 0.97095
767 2 0.0302512 0.236854 0.970832
768 1 0.0385533 0.221271 0.970913
769 1 0.00139735 0.25249 0.0126238
770 2 0.00965657 0.268104 0.0126035
771 1 0.0276975 0.268112 0.0125098
772 2 0.036019 0.252512 0.0126226
773 2 0.00400004 0.252445 0.054205
774 1 0.0122581 0.268089 0.0542443
775 2 0.030295 0.268082 0.054353
776 1 0.0385496 0.25249 0.0542745
777 1 0.00144248 0.252582 0.095921
778 2 0.00971627 0.268201 0.0959594
779 1 0.0277392 0.268157 0.0958884
780 2 0.035988 0.252553 0.0959289
781 2 0.00392208 0.25251 0.137587
782 1 0.0122147 0.268142 0.137585
783 2 0.0302319 0.268184 0.137587
784 1 0.0385086 0.252588 0.137547
785 1 0.00140239 0.252511 0.179257
786 2 0.00963532 0.268142 0.179295
787 1 0.027686 0.268091 0.179257
788 2 0.0359755 0.252533 0.179278
789 2 0.00396504 0.252501 0.221
790 1 0.0122351 0.268117 0.221011
791 2 0.0302593 0.268141 0.22106
792 1 0.0385297 0.252509 0.221002
793 1 0.00138476 0.252476 0.262582
794 2 0.00965862 0.268139 0.262542
795 1 0.0276924 0.268117 0.262514
796 2 0.0359851 0.252497 0.262545
797 2 0.00394102 0.252512 0.304386
798 1 0.0122176 0.268152 0.304399
799 2 0.0302702 0.268154 0.304417
800 1 0.0385615 0.252529 0.304302
801 1 0.00139744 0.252502 0.345922
802 2 0.00964823 0.268135 0.345937
803 1 0.0276731 0.268173 0.346004
804 2 0.0359406 0.252552 0.346023
805 2 0.00395707 0.252466 0.387734
806 1 0.0122535 0.26808 0.387723
807 2 0.0303035 0.268106 0.387722
808 1 0.0385803 0.252501 0.38771
809 1 0.0013457 0.252464 0.429382
810 2 0.0096526 0.268087 0.429364
811 1 0.0276652 0.26812 0.429359
812 2 0.0359697 0.252466 0.429331
813 2 0.00392321 0.252464 0.470993
814 1 0.0122413 0.268075 0.471054
815 2 0.0302848 0.268054 0.471109
816 1 0.0385324 0.252467 0.471011
817 1 0.00131507 0.252487 0.512561
818 2 0.00962367 0.268123 0.512582
819 1 0.0276828 0.268101 0.512634
820 2 0.0359579 0.25246 0.512579
821 2 0.00389409 0.2525 0.554291
822 1 0.0122237 0.26809 0.55421
823 2 0.0302503 0.268051 0.554182
824 1 0.038518 0.252441 0.554154
825 1 0.00137322 0.252425 0.595832
826 2 0.00962532 0.268027 0.595904
827 1 0.0277208 0.268029 0.596041
828 2 0.0359639 0.252405 0.595887
829 2 0.00397405 0.252489 0.637537
830 1 0.01224 0.268104 0.637655
831 2 0.0302812 0.268112 0.637596
832 1 0.0385961 0.252532 0.637554
833 1 0.00141503 0.252475 0.679129
834 2 0.00969081 0.268094 0.6792
835 1 0.0277263 0.268094 0.679293
836 2 0.0360016 0.252506 0.679233
837 2 0.00393924 0.252423 0.720811
838 1 0.0121841 0.268088 0.720836
839 2 0.0302223 0.268127 0.72079
840 1 0.0385012 0.252443 0.720856
841 1 0.00137428 0.252456 0.762498
842 2 0.00962785 0.268141 0.762507
843 1 0.027677 0.26812 0.762531
844 2 0.0359719 0.252505 0.762578
845 2 0.00393482 0.252529 0.804165
846 1 0.0122132 0.26807 0.804278
847 2 0.0302615 0.268092 0.804339
848 1 0.0385351 0.252461 0.804175
849 1 0.00136003 0.252511 0.845933
850 2 0.00969415 0.26812 0.845876
851 1 0.0277035 0.268067 0.845944
852 2 0.0359702 0.252428 0.845943
853 2 0.0039606 0.252438 0.887757
854 1 0.0122258 0.268085 0.887676
855 2 0.0302703 0.268065 0.887683
856 1 0.0385315 0.252457 0.887598
857 1 0.0014161 0.252466 0.929182
858 2 0.00968053 0.268093 0.92919
859 1 0.0277369 0.268076 0.929292
860 2 0.0359915 0.252473 0.929224