ITEM: TIMESTEP
400000
ITEM: NUMBER OF ATOMS
58368
ITEM: BOX BOUNDS xy xz yz pp pp pp
-3.9006362984379528e+01 4.3344360484379528e+01 0.0000000000000000e+00
-4.1537425155805693e+01 4.6546526955819871e+01 0.0000000000000000e+00
-3.1704432539679203e+01 4.4976435739665177e+01 0.0000000000000000e+00
ITEM: ATOMS id type xs ys zs
1 1 0.00179197 0.00249727 0.012701
2 2 0.0101832 0.0181462 0.0126354
3 1 0.0280735 0.0181379 0.0125497
4 2 0.0365049 0.00246548 0.0125745
5 2 0.00342628 0.00255903 0.0541241
6 1 0.0118694 0.0181542 0.0542551
7 2 0.0297747 0.0181796 0.0542756
8 1 0.0381494 0.00254606 0.0541615
9 1 0.00175515 0.00248517 0.0957267
10 2 0.0101473 0.0181149 0.0956744
11 1 0.0280685 0.0181003 0.0957312
12 2 0.0364854 0.00249382 0.0958231
13 2 0.00346389 0.00253433 0.137426
14 1 0.0118394 0.0181722 0.1374
15 2 0.0297737 0.0181845 0.137505
16 1 0.038191 0.00253718 0.137551
17 1 0.00178033 0.00256023 0.179165
18 2 0.0101923 0.0181843 0.179153
19 1 0.0280853 0.0181467 0.17912
20 2 0.0364989 0.00249579 0.1791
21 2 0.0034481 0.00254922 0.2207
22 1 0.0118734 0.0181474 0.220787
23 2 0.029781 0.0181464 0.220791
24 1 0.0381908 0.00256771 0.220833
25 1 0.00181245 0.00252985 0.262575
26 2 0.0101836 0.0181806 0.262534
27 1 0.0281056 0.0181999 0.262526
28 2 0.0365272 0.00252698 0.262478
29 2 0.00349936 0.00249428 0.304205
30 1 0.0118942 0.0181317 0.304204
31 2 0.0297866 0.0181368 0.304239
32 1 0.0381975 0.0025096 0.304346
33 1 0.00175292 0.00251426 0.345941
34 2 0.0101358 0.0181286 0.34591
35 1 0.02803 0.0181556 0.345883
36 2 0.0364537 0.00252193 0.345924
37 2 0.00349017 0.00253883 0.387595
38 1 0.0119041 0.0181456 0.387383
39 2 0.0297973 0.0181377 0.387426
40 1 0.0382137 0.00251061 0.387448
41 1 0.00178493 0.00247686 0.429244
42 2 0.0102521 0.0181284 0.429203
43 1 0.0281181 0.0181442 0.429161
44 2 0.0365081 0.00251043 0.429201
45 2 0.00343417 0.00256298 0.470851
46 1 0.0118746 0.0181414 0.470823
47 2 0.0297594 0.0181327 0.470887
48 1 0.0381709 0.00251517 0.470945
49 1 0.0017873 0.00248155 0.512532
50 2 0.0101763 0.0180717 0.512509
51 1 0.028042 0.0180911 0.512471
52 2 0.0364773 0.00247682 0.512465
53 2 0.003448 0.00244091 0.554308
54 1 0.0118352 0.0180805 0.554194
55 2 0.029748 0.0181108 0.554239
56 1 0.038149 0.00243968 0.554287
57 1 0.00177811 0.00246314 0.595804
58 2 0.0101684 0.0180691 0.595831
59 1 0.0280772 0.0181116 0.595863
60 2 0.0365188 0.00249125 0.5959
61 2 0.00340295 0.00247829 0.637427
62 1 0.0118041 0.0180915 0.637411
63 2 0.0296937 0.0180655 0.637465
64 1 0.0381205 0.00246416 0.637586
65 1 0.00171113 0.00249854 0.679066
66 2 0.0101502 0.0180853 0.67913
67 1 0.0280353 0.0181294 0.679059
68 2 0.0364302 0.00251677 0.679054
69 2 0.00344674 0.00245838 0.720767
70 1 0.0118277 0.0180532 0.720696
71 2 0.029743 0.0180578 0.720774
72 1 0.0381518 0.00240399 0.720802
73 1 0.00173579 0.00246144 0.762491
74 2 0.0101592 0.0181227 0.76261
75 1 0.0280374 0.0181235 0.762521
76 2 0.0364452 0.00248821 0.762452
77 2 0.00345007 0.00245808 0.804165
78 1 0.0118343 0.0180917 0.804142
79 2 0.0297386 0.0180753 0.80415
80 1 0.0381612 0.00245444 0.804128
81 1 0.00178578 0.00245212 0.845876
82 2 0.0101895 0.0181063 0.845895
83 1 0.0281164 0.0181131 0.84594
84 2 0.0365665 0.00248855 0.845794
85 2 0.00344772 0.00251439 0.887532
86 1 0.0118774 0.0181622 0.887397
87 2 0.0297638 0.0181159 0.887456
88 1 0.0381763 0.00248504 0.887572
89 1 0.00176561 0.0024637 0.929193
90 2 0.0101935 0.018035 0.929225
91 1 0.0280826 0.018063 0.929305
92 2 0.0365364 0.00243844 0.929238
93 2 0.00338783 0.00245914 0.97096
94 1 0.0118274 0.0180982 0.970867
95 2 0.0297163 0.0180518 0.970881
96 1 0.038135 0.00244404 0.97083
97 1 0.00177056 0.0337796 0.0125789
98 2 0.0101552 0.0494087 0.0125141
99 1 0.0280629 0.0493862 0.0125524
100 2 0.0364343 0.0337738 0.0126069
101 2 0.00344236 0.0337859 0.0542817
102 1 0.0118437 0.0494307 0.0542137
103 2 0.0297582 0.0494018 0.0542337
104 1 0.0381567 0.0337783 0.0543593
105 1 0.00174456 0.0337273 0.0957823
106 2 0.0101602 0.0493606 0.0958278
107 1 0.0280609 0.0494001 0.0958291
108 2 0.0364893 0.0337626 0.0958497
109 2 0.00345201 0.0337879 0.137403
110 1 0.0118846 0.0494189 0.137492
111 2 0.0297575 0.0494045 0.137591
112 1 0.038185 0.0337828 0.137613
113 1 0.00172495 0.0338245 0.179218
114 2 0.0101559 0.0494218 0.17924
115 1 0.0280547 0.0493934 0.179185
116 2 0.0364809 0.0337975 0.179218
117 2 0.00341382 0.0337807 0.220886
118 1 0.0118521 0.0493959 0.220912
119 2 0.0297678 0.0494145 0.220867
120 1 0.0381969 0.0337707 0.220842
121 1 0.00177695 0.0338097 0.262474
122 2 0.0102332 0.0494393 0.262476
123 1 0.0281108 0.0494427 0.262633
124 2 0.036515 0.0337927 0.262667
125 2 0.00345397 0.0337768 0.304155
126 1 0.0119036 0.0493777 0.304237
127 2 0.0297676 0.049425 0.304195
128 1 0.0381884 0.0337866 0.304243
129 1 0.00169874 0.0337227 0.345896
130 2 0.0101126 0.0493623 0.345848
131 1 0.0280312 0.049412 0.345921
132 2 0.0364337 0.0337852 0.345806
133 2 0.00342731 0.0337614 0.387422
134 1 0.0118509 0.0493656 0.38749
135 2 0.0297482 0.0493941 0.387438
136 1 0.0381762 0.0337492 0.387422
137 1 0.001795 0.0338119 0.429174
138 2 0.0102325 0.0494136 0.429159
139 1 0.0281358 0.0493691 0.429003
140 2 0.0365501 0.0337477 0.42904
141 2 0.00351025 0.0337669 0.470861
142 1 0.0118758 0.0494412 0.470839
143 2 0.0297756 0.0494046 0.470812
144 1 0.0381716 0.033745 0.470902
145 1 0.00179303 0.0337047 0.512581
146 2 0.0101828 0.0493716 0.512531
147 1 0.0280865 0.0493556 0.512499
148 2 0.0364936 0.0337373 0.512525
149 2 0.00341783 0.0337044 0.554152
150 1 0.0118253 0.0493436 0.554167
151 2 0.0297304 0.0493719 0.55429
152 1 0.0381876 0.033746 0.55436
153 1 0.00175554 0.033701 0.595905
154 2 0.0101676 0.0493006 0.595958
155 1 0.028047 0.0493199 0.5959
156 2 0.0364866 0.0337028 0.595773
157 2 0.00342226 0.033715 0.637443
158 1 0.0118647 0.0493519 0.637453
159 2 0.0297622 0.0493359 0.637374
160 1 0.0381392 0.0336855 0.637447
161 1 0.00174745 0.0337725 0.679112
162 2 0.0101451 0.049383 0.679174
163 1 0.0280467 0.0493665 0.679175
164 2 0.0364626 0.0337382 0.679184
165 2 0.00343022 0.0336777 0.720792
166 1 0.011865 0.049328 0.72076
167 2 0.0297536 0.0493468 0.720767
168 1 0.0381419 0.0336958 0.720841
169 1 0.00174471 0.0337312 0.762592
170 2 0.010139 0.0493735 0.762562
171 1 0.0280558 0.0493411 0.762503
172 2 0.0365046 0.0337251 0.76254
173 2 0.00341712 0.0337193 0.804184
174 1 0.0118499 0.0493542 0.80421
175 2 0.0297708 0.0492683 0.804226
176 1 0.0381943 0.0336612 0.804271
177 1 0.00177168 0.033762 0.845949
178 2 0.0101683 0.0493799 0.845967
179 1 0.0280763 0.0493413 0.845897
180 2 0.0365497 0.0337378 0.845929
181 2 0.00343087 0.0337556 0.887595
182 1 0.0118538 0.0493326 0.887627
183 2 0.0297673 0.0493227 0.887586
184 1 0.0381722 0.0336979 0.887528
185 1 0.00176853 0.0336469 0.929196
186 2 0.010162 0.049269 0.929016
187 1 0.0280744 0.0492898 0.929199
188 2 0.0364772 0.0336848 0.929304
189 2 0.00337199 0.033714 0.970913
190 1 0.0118415 0.0493526 0.970887
191 2 0.0297288 0.0493569 0.970849
192 1 0.0381484 0.0336871 0.970961
193 1 0.00171625 0.0650159 0.0125321
194 2 0.0101526 0.0806282 0.0125906
195 1 0.0280587 0.0806488 0.0125415
196 2 0.0365044 0.0650231 0.0125582
197 2 0.00341535 0.0650387 0.0542013
198 1 0.0118584 0.0806673 0.0543215
199 2 0.0297623 0.0806784 0.0543036
200 1 0.0381605 0.0650619 0.0541139
201 1 0.00173379 0.064997 0.095874
202 2 0.0101492 0.0806214 0.0958771
203 1 0.0280119 0.0806566 0.0959758
204 2 0.0364584 0.0650283 0.0959138
205 2 0.00344054 0.0650174 0.137482
206 1 0.0118221 0.0806133 0.137555
207 2 0.0297706 0.0806174 0.137597
208 1 0.038169 0.0649928 0.13754
209 1 0.00178668 0.0650162 0.179217
210 2 0.0101756 0.0806361 0.179211
211 1 0.0280962 0.0806411 0.179287
212 2 0.0364774 0.064988 0.179279
213 2 0.00342211 0.0650192 0.220898
214 1 0.0118556 0.0806751 0.220981
215 2 0.0297615 0.0806751 0.220925
216 1 0.0381944 0.0650589 0.220913
217 1 0.00180644 0.065044 0.262413
218 2 0.0102313 0.0806472 0.262429
219 1 0.0281417 0.0806776 0.262555
220 2 0.0365534 0.065054 0.262589
221 2 0.00350909 0.0649977 0.304159
222 1 0.0119103 0.0806342 0.304195
223 2 0.0297955 0.0806295 0.304165
224 1 0.0382204 0.0650325 0.304214
225 1 0.00169391 0.0649774 0.345845
226 2 0.0101119 0.0806517 0.345923
227 1 0.0280071 0.0806988 0.345934
228 2 0.0364556 0.0650335 0.34585
229 2 0.00342885 0.0650089 0.387524
230 1 0.0118429 0.0806452 0.387506
231 2 0.0297218 0.0806215 0.387513
232 1 0.0381583 0.0649978 0.387546
233 1 0.00182671 0.065033 0.429247
234 2 0.0102348 0.0806274 0.429178
235 1 0.0281175 0.0805963 0.429181
236 2 0.0365497 0.0649831 0.429062
237 2 0.00347428 0.0650288 0.470822
238 1 0.0118981 0.0806734 0.470752
239 2 0.0297427 0.0806555 0.470748
240 1 0.0381626 0.065009 0.470737
241 1 0.00180816 0.0650146 0.512562
242 2 0.010263 0.0806206 0.512617
243 1 0.0281176 0.0805992 0.512653
244 2 0.0365273 0.0649503 0.512587
245 2 0.00339853 0.06493 0.554087
246 1 0.0118648 0.080588 0.554235
247 2 0.0297647 0.0805755 0.554271
248 1 0.0381501 0.0649733 0.55425
249 1 0.00174792 0.0649078 0.595909
250 2 0.0101882 0.0805637 0.595843
251 1 0.0280629 0.0805919 0.595806
252 2 0.0364277 0.0649547 0.59584
253 2 0.00346837 0.0649962 0.6375
254 1 0.0118827 0.0805994 0.637373
255 2 0.0297814 0.0806177 0.637365
256 1 0.0381859 0.0649705 0.637314
257 1 0.00169823 0.0649856 0.679211
258 2 0.0101628 0.0805961 0.679236
259 1 0.0280323 0.0805886 0.679254
260 2 0.0364587 0.0649705 0.679247
261 2 0.0034173 0.065003 0.720756
262 1 0.0118451 0.0806057 0.720828
263 2 0.029784 0.0806001 0.720815
264 1 0.0381641 0.064929 0.720713
265 1 0.00175187 0.0650036 0.762593
266 2 0.0101895 0.0805795 0.762577
267 1 0.0280721 0.0805932 0.762531
268 2 0.0364595 0.0649915 0.762442
269 2 0.00341779 0.0649698 0.804182
270 1 0.0118034 0.0805934 0.804217
271 2 0.0297264 0.0805737 0.804162
272 1 0.0381656 0.0649521 0.804174
273 1 0.00174039 0.0650176 0.845947
274 2 0.0101684 0.080626 0.845863
275 1 0.0280918 0.0805975 0.845811
276 2 0.0365218 0.064987 0.845852
277 2 0.00339133 0.0649449 0.887544
278 1 0.0118381 0.0805524 0.887615
279 2 0.0297489 0.0805541 0.887593
280 1 0.03823 0.0649549 0.887515
281 1 0.00177642 0.0649314 0.929139
282 2 0.0101724 0.080558 0.929114
283 1 0.0280743 0.0805419 0.929136
284 2 0.0364893 0.0648826 0.929133
285 2 0.00342374 0.0649667 0.970861
286 1 0.0118323 0.0806012 0.970932
287 2 0.0297261 0.0806075 0.970952
288 1 0.0381648 0.0649794 0.970886
289 1 0.00174421 0.0962801 0.0126409
290 2 0.0101958 0.111875 0.0126174
291 1 0.0280842 0.111887 0.0125793
292 2 0.0364598 0.0962844 0.0125685
293 2 0.00345376 0.0962632 0.0543576
294 1 0.0118424 0.111933 0.0543344
295 2 0.0297638 0.111971 0.0543029
296 1 0.0381678 0.0963087 0.0542402
297 1 0.00173202 0.0962488 0.0958166
298 2 0.0101458 0.111894 0.095839
299 1 0.0280377 0.111888 0.0960076
300 2 0.0364072 0.0962543 0.0959955
301 2 0.00341363 0.0962588 0.137469
302 1 0.0118817 0.111879 0.137482
303 2 0.0297572 0.111896 0.137584
304 1 0.0381943 0.0962689 0.137633
305 1 0.00175626 0.0962525 0.179201
306 2 0.010144 0.111892 0.179187
307 1 0.0280604 0.111913 0.179244
308 2 0.0365084 0.0962715 0.17938
309 2 0.00344883 0.0962638 0.220986
310 1 0.0118544 0.111942 0.220949
311 2 0.0297432 0.111919 0.220952
312 1 0.0381812 0.0963331 0.220979
313 1 0.001801 0.0962553 0.262547
314 2 0.0101943 0.111848 0.26256
315 1 0.0281193 0.111907 0.262461
316 2 0.0365742 0.0962969 0.262486
317 2 0.00348468 0.0962505 0.304241
318 1 0.0118796 0.111888 0.304315
319 2 0.0297685 0.111937 0.30437
320 1 0.0381994 0.0962903 0.304263
321 1 0.00170472 0.0962844 0.345977
322 2 0.0101706 0.111908 0.345904
323 1 0.0280803 0.111948 0.345896
324 2 0.0364607 0.0963195 0.345857
325 2 0.00341203 0.0962855 0.387424
326 1 0.011856 0.111895 0.387489
327 2 0.029765 0.111886 0.387434
328 1 0.0381735 0.0962576 0.387435
329 1 0.00182322 0.096264 0.429188
330 2 0.0102908 0.111874 0.429259
331 1 0.0281621 0.111841 0.429184
332 2 0.0365318 0.0962606 0.429183
333 2 0.00345049 0.0963266 0.470775
334 1 0.011868 0.111906 0.470751
335 2 0.0297701 0.111885 0.470775
336 1 0.0381614 0.096298 0.470834
337 1 0.00182448 0.0962381 0.512525
338 2 0.0102517 0.11186 0.512511
339 1 0.0281525 0.111875 0.512531
340 2 0.0365498 0.0962338 0.51256
341 2 0.0034208 0.096227 0.554202
342 1 0.0118766 0.111832 0.554221
343 2 0.029743 0.111831 0.554223
344 1 0.0381632 0.0961981 0.554157
345 1 0.00174135 0.096203 0.595806
346 2 0.0101923 0.111815 0.595843
347 1 0.0280463 0.111847 0.59566
348 2 0.0364802 0.0962132 0.595732
349 2 0.00345138 0.0962331 0.637335
350 1 0.011884 0.111857 0.63729
351 2 0.0297522 0.111866 0.637385
352 1 0.0381946 0.0962525 0.637411
353 1 0.00177021 0.096241 0.67926
354 2 0.0101878 0.111885 0.679227
355 1 0.0280619 0.111899 0.679258
356 2 0.0364517 0.0962229 0.679257
357 2 0.00342191 0.096257 0.720832
358 1 0.0118248 0.111867 0.720948
359 2 0.0297322 0.111882 0.720889
360 1 0.0381734 0.0962441 0.720889
361 1 0.00177272 0.0962157 0.76259
362 2 0.0101644 0.111877 0.76268
363 1 0.0280654 0.111868 0.762529
364 2 0.0364753 0.0962245 0.762571
365 2 0.00339565 0.0962448 0.804328
366 1 0.0118375 0.111822 0.804393
367 2 0.0297676 0.111844 0.804401
368 1 0.0381528 0.0962258 0.804284
369 1 0.00177614 0.0962079 0.845867
370 2 0.0102134 0.11188 0.845878
371 1 0.0280889 0.111854 0.845907
372 2 0.0365153 0.0961869 0.845788
373 2 0.00344624 0.0962528 0.88765
374 1 0.0118456 0.111883 0.887547
375 2 0.0297448 0.111848 0.887544
376 1 0.0381382 0.0961987 0.887509
377 1 0.00179477 0.0961964 0.929152
378 2 0.0102122 0.111813 0.929135
379 1 0.028108 0.111829 0.929105
380 2 0.0365087 0.0962045 0.929018
381 2 0.00340862 0.0962308 0.970878
382 1 0.0118088 0.111848 0.970903
383 2 0.0297279 0.11185 0.970948
384 1 0.0381397 0.0962394 0.970899
385 1 0.00174391 0.127505 0.0125528
386 2 0.010185 0.143147 0.0124308
387 1 0.028114 0.143136 0.0125259
388 2 0.0364863 0.127517 0.012626
389 2 0.00346328 0.127555 0.054266
390 1 0.011857 0.143196 0.0542292
391 2 0.0297185 0.143184 0.0542254
392 1 0.0381832 0.127617 0.0542576
393 1 0.0017401 0.127518 0.095781
394 2 0.0101393 0.143181 0.0958474
395 1 0.0280599 0.143146 0.0958744
396 2 0.0364616 0.127521 0.0959318
397 2 0.00347572 0.127507 0.13763
398 1 0.0118862 0.143097 0.137631
399 2 0.0297993 0.143123 0.137711
400 1 0.0382422 0.127489 0.137642
401 1 0.00176084 0.127542 0.179195
402 2 0.0102013 0.143144 0.179241
403 1 0.0280873 0.143149 0.179211
404 2 0.0365168 0.127508 0.179254
405 2 0.00345355 0.127523 0.220899
406 1 0.0118698 0.143152 0.220976
407 2 0.0297861 0.14318 0.220918
408 1 0.0381865 0.127531 0.220867
409 1 0.00175954 0.127507 0.262577
410 2 0.0101657 0.14314 0.26253
411 1 0.0280637 0.143142 0.26251
412 2 0.0365037 0.127511 0.2625
413 2 0.00346591 0.127502 0.304272
414 1 0.011861 0.143152 0.304222
415 2 0.0297657 0.143177 0.304222
416 1 0.0382116 0.12757 0.304298
417 1 0.00174189 0.127544 0.345858
418 2 0.0102006 0.143156 0.345801
419 1 0.028069 0.143142 0.345875
420 2 0.0364982 0.12753 0.345782
421 2 0.00344965 0.127513 0.387571
422 1 0.0118407 0.143162 0.387569
423 2 0.0297606 0.143178 0.387489
424 1 0.0381937 0.127523 0.387477
425 1 0.00183314 0.127493 0.429209
426 2 0.0102045 0.143091 0.429191
427 1 0.0281307 0.143101 0.42918
428 2 0.0365791 0.127458 0.429181
429 2 0.00347518 0.127526 0.470827
430 1 0.0118639 0.143197 0.470877
431 2 0.029725 0.143172 0.47093
432 1 0.038162 0.127541 0.470774
433 1 0.00184491 0.127476 0.512542
434 2 0.010252 0.143115 0.512544
435 1 0.0281315 0.143152 0.512498
436 2 0.0365356 0.127488 0.512453
437 2 0.00342801 0.127455 0.554208
438 1 0.0118494 0.14307 0.554148
439 2 0.0297173 0.143034 0.554158
440 1 0.0381563 0.127445 0.554181
441 1 0.00173736 0.12744 0.595914
442 2 0.0101546 0.143041 0.59583
443 1 0.0280642 0.143083 0.595637
444 2 0.0364821 0.127447 0.595607
445 2 0.00338383 0.127484 0.637376
446 1 0.0118552 0.143088 0.637432
447 2 0.0297377 0.143072 0.637461
448 1 0.0381843 0.12746 0.637484
449 1 0.00173913 0.127523 0.679317
450 2 0.0101985 0.143155 0.679286
451 1 0.0281081 0.143149 0.679274
452 2 0.036511 0.127514 0.6792
453 2 0.00341822 0.127478 0.720963
454 1 0.0118353 0.14309 0.720943
455 2 0.0297191 0.143111 0.72095
456 1 0.0381672 0.127464 0.720875
457 1 0.00176903 0.127463 0.762668
458 2 0.0101725 0.143068 0.762686
459 1 0.0280538 0.143093 0.76255
460 2 0.0364998 0.127454 0.762502
461 2 0.00341976 0.127471 0.804357
462 1 0.0118651 0.143068 0.804322
463 2 0.0297537 0.143063 0.804284
464 1 0.038157 0.127481 0.804277
465 1 0.00173746 0.127475 0.84581
466 2 0.0101674 0.14313 0.845772
467 1 0.0280947 0.143084 0.845814
468 2 0.0365153 0.127455 0.845859
469 2 0.00345725 0.127484 0.887559
470 1 0.0119009 0.143087 0.887632
471 2 0.0298079 0.143116 0.887528
472 1 0.0381619 0.127477 0.887582
473 1 0.0017614 0.127405 0.92916
474 2 0.0102006 0.143041 0.929227
475 1 0.0281012 0.143072 0.929211
476 2 0.0365204 0.127467 0.929153
477 2 0.00339038 0.12751 0.970862
478 1 0.0118517 0.143118 0.970855
479 2 0.0297747 0.143087 0.970959
480 1 0.0381632 0.127474 0.97096
481 1 0.00177059 0.158776 0.0124253
482 2 0.010191 0.174415 0.0124597
483 1 0.0280928 0.174423 0.0125367
484 2 0.0364898 0.158777 0.0126243
485 2 0.00346551 0.158818 0.0542672
486 1 0.0118724 0.174455 0.0542301
487 2 0.0297743 0.174452 0.054193
488 1 0.0381502 0.158789 0.0541203
489 1 0.00176887 0.158784 0.0958985
490 2 0.0101507 0.174445 0.0957971
491 1 0.0280575 0.174395 0.0957821
492 2 0.0364877 0.158779 0.0959011
493 2 0.00343618 0.158758 0.137586
494 1 0.0118811 0.174373 0.137604
495 2 0.0297767 0.174372 0.137575
496 1 0.0382387 0.158708 0.13762
497 1 0.00179823 0.158743 0.179343
498 2 0.0102091 0.17443 0.179357
499 1 0.0281256 0.174428 0.179369
500 2 0.0365147 0.158792 0.179317
501 2 0.00347575 0.15879 0.220966
502 1 0.0118825 0.174407 0.221007
503 2 0.0297722 0.174372 0.221047
504 1 0.0381905 0.158791 0.220941
505 1 0.00179127 0.158803 0.262634
506 2 0.0101911 0.174422 0.262653
507 1 0.028083 0.17442 0.262704
508 2 0.0364906 0.158782 0.262645
509 2 0.00341261 0.158746 0.304223
510 1 0.0118436 0.174349 0.304261
511 2 0.0297543 0.174395 0.304294
512 1 0.038191 0.158787 0.304256
513 1 0.00177366 0.158814 0.345883
514 2 0.01015 0.17444 0.345994
515 1 0.0280614 0.174405 0.34593
516 2 0.0364715 0.158764 0.345823
517 2 0.00343046 0.158794 0.387573
518 1 0.0118491 0.174407 0.387509
519 2 0.029768 0.174416 0.387525
520 1 0.0381885 0.158792 0.387537
521 1 0.00179091 0.158743 0.429284
522 2 0.0102238 0.174347 0.429238
523 1 0.0280978 0.174358 0.429209
524 2 0.0365245 0.158753 0.429154
525 2 0.00342686 0.158793 0.470848
526 1 0.0118582 0.174416 0.470901
527 2 0.0297544 0.174435 0.470846
528 1 0.03814 0.158799 0.470862
529 1 0.00182108 0.158729 0.512554
530 2 0.0102458 0.174373 0.512577
531 1 0.0281016 0.174386 0.512555
532 2 0.0365487 0.158787 0.51249
533 2 0.00339609 0.158665 0.554188
534 1 0.0118483 0.174288 0.554119
535 2 0.0297311 0.17429 0.554088
536 1 0.038142 0.158655 0.554138
537 1 0.00174033 0.158655 0.595857
538 2 0.0101768 0.174313 0.595863
539 1 0.028086 0.174384 0.595839
540 2 0.0364822 0.158699 0.595716
541 2 0.00344352 0.15872 0.63757
542 1 0.0118386 0.174378 0.637623
543 2 0.0297501 0.174333 0.637651
544 1 0.0381392 0.158696 0.637531
545 1 0.00177277 0.158757 0.67928
546 2 0.0101876 0.17437 0.679376
547 1 0.0281096 0.174383 0.679326
548 2 0.0365558 0.158778 0.679323
549 2 0.00343573 0.158788 0.720864
550 1 0.0118719 0.174431 0.720884
551 2 0.0297774 0.174398 0.72089
552 1 0.0381677 0.158739 0.720885
553 1 0.00174009 0.158656 0.762656
554 2 0.0101375 0.174288 0.762605
555 1 0.0280411 0.174295 0.762543
556 2 0.0364665 0.158688 0.762477
557 2 0.00338467 0.15867 0.804305
558 1 0.0118597 0.174293 0.80423
559 2 0.0297516 0.174309 0.80431
560 1 0.0381656 0.158695 0.804248
561 1 0.00174504 0.158734 0.845937
562 2 0.0101631 0.17436 0.845938
563 1 0.0280704 0.174371 0.845904
564 2 0.036473 0.158725 0.845828
565 2 0.00347561 0.158756 0.887633
566 1 0.0118967 0.174341 0.887624
567 2 0.0297631 0.174339 0.887523
568 1 0.038188 0.158725 0.887501
569 1 0.00173986 0.158659 0.929138
570 2 0.0101565 0.174287 0.929066
571 1 0.0280526 0.17433 0.929196
572 2 0.036495 0.158707 0.929228
573 2 0.00344266 0.158741 0.97081
574 1 0.0118495 0.174333 0.970814
575 2 0.0297327 0.174309 0.970946
576 1 0.0381753 0.158695 0.970972
577 1 0.00177952 0.189995 0.0124883
578 2 0.0102391 0.205611 0.0124936
579 1 0.0280945 0.205633 0.0124654
580 2 0.0365005 0.190032 0.0125894
581 2 0.00345856 0.190079 0.0542419
582 1 0.0118679 0.205662 0.0542213
583 2 0.0297517 0.205679 0.0543573
584 1 0.0381779 0.190079 0.0542786
585 1 0.00173849 0.190061 0.0958571
586 2 0.0102032 0.205678 0.0959179
587 1 0.0280804 0.205671 0.0959206
588 2 0.0365079 0.190039 0.0957773
589 2 0.00343236 0.190006 0.137679
590 1 0.0118642 0.205609 0.137655
591 2 0.0297568 0.205609 0.137654
592 1 0.0381701 0.19003 0.137733
593 1 0.00179413 0.190032 0.179276
594 2 0.0102027 0.205682 0.17931
595 1 0.0281478 0.205663 0.179353
596 2 0.0365794 0.190018 0.179415
597 2 0.00347518 0.190031 0.220913
598 1 0.011878 0.205623 0.22091
599 2 0.0297511 0.205605 0.220939
600 1 0.038172 0.190009 0.221009
601 1 0.00178088 0.190072 0.262677
602 2 0.0102076 0.20566 0.262595
603 1 0.0281154 0.205659 0.262653
604 2 0.036476 0.190025 0.262599
605 2 0.00345227 0.189987 0.304257
606 1 0.0118851 0.205602 0.304227
607 2 0.029796 0.205645 0.304281
608 1 0.0381594 0.190047 0.304222
609 1 0.00170709 0.190054 0.345963
610 2 0.010181 0.205665 0.345995
611 1 0.0280869 0.205648 0.345855
612 2 0.0365025 0.190013 0.345873
613 2 0.0034574 0.190021 0.387604
614 1 0.0118336 0.205627 0.387666
615 2 0.0297587 0.205623 0.387632
616 1 0.0381503 0.190031 0.387526
617 1 0.00175626 0.189987 0.429203
618 2 0.0101577 0.205585 0.429161
619 1 0.0280582 0.205583 0.429184
620 2 0.0365121 0.189993 0.429178
621 2 0.00347849 0.190031 0.470944
622 1 0.0118539 0.205686 0.470917
623 2 0.0297572 0.205672 0.4709
624 1 0.0381892 0.190055 0.470912
625 1 0.00180002 0.189965 0.512643
626 2 0.0101837 0.205606 0.512581
627 1 0.0280957 0.205632 0.512574
628 2 0.0364679 0.190047 0.512569
629 2 0.00344677 0.189931 0.554162
630 1 0.011864 0.20555 0.554204
631 2 0.0297498 0.205546 0.554169
632 1 0.0381348 0.189921 0.554167
633 1 0.00176789 0.189979 0.595845
634 2 0.0101822 0.205596 0.595834
635 1 0.0280776 0.205595 0.595908
636 2 0.0364907 0.189984 0.59594
637 2 0.00345714 0.189985 0.637606
638 1 0.0118898 0.205589 0.637584
639 2 0.0297957 0.205612 0.637588
640 1 0.0381849 0.189987 0.637606
641 1 0.0018046 0.189986 0.679372
642 2 0.0101608 0.205613 0.679275
643 1 0.0280905 0.205607 0.679189
644 2 0.0365006 0.189977 0.679227
645 2 0.00344332 0.190056 0.720808
646 1 0.0118612 0.205639 0.720757
647 2 0.0297679 0.205637 0.720832
648 1 0.0381929 0.190019 0.720909
649 1 0.00173525 0.189907 0.762425
650 2 0.0101264 0.205543 0.76251
651 1 0.0279911 0.205594 0.762564
652 2 0.0364713 0.189944 0.762526
653 2 0.00344509 0.189948 0.804225
654 1 0.011833 0.205585 0.804195
655 2 0.0297456 0.205588 0.804216
656 1 0.038111 0.189961 0.804224
657 1 0.00178116 0.189988 0.845863
658 2 0.0101983 0.205621 0.845942
659 1 0.0280703 0.205663 0.845924
660 2 0.0364632 0.190013 0.845937
661 2 0.0034363 0.18998 0.887641
662 1 0.0118702 0.205607 0.887615
663 2 0.0297566 0.205633 0.887486
664 1 0.0381649 0.18998 0.88747
665 1 0.00175831 0.189895 0.929009
666 2 0.0101481 0.205555 0.929011
667 1 0.0280583 0.205561 0.929165
668 2 0.0364907 0.189947 0.929181
669 2 0.0034605 0.189962 0.970695
670 1 0.0118667 0.205559 0.970736
671 2 0.0297763 0.205546 0.970844
672 1 0.0381321 0.189929 0.970879
673 1 0.00178767 0.221225 0.0124416
674 2 0.0102223 0.236888 0.0124841
675 1 0.0281085 0.236927 0.012531
676 2 0.0365125 0.221283 0.0124598
677 2 0.00341444 0.221284 0.0542035
678 1 0.0118462 0.23691 0.0541332
679 2 0.0297545 0.236964 0.0542267
680 1 0.0381928 0.221314 0.0542122
681 1 0.00174992 0.221293 0.0959115
682 2 0.010167 0.236916 0.0958963
683 1 0.028041 0.236948 0.0959867
684 2 0.0364841 0.221335 0.0960435
685 2 0.00343573 0.221222 0.137709
686 1 0.0118758 0.236846 0.137689
687 2 0.0297613 0.236859 0.137589
688 1 0.0381731 0.221234 0.137625
689 1 0.00178084 0.221292 0.17936
690 2 0.0101638 0.236919 0.179315
691 1 0.0280861 0.236874 0.179316
692 2 0.0365102 0.221262 0.179286
693 2 0.0034449 0.221258 0.220902
694 1 0.0118587 0.236877 0.220983
695 2 0.0297701 0.236875 0.220968
696 1 0.0381591 0.221256 0.22101
697 1 0.00175717 0.221286 0.262529
698 2 0.0101871 0.2369 0.262498
699 1 0.0280874 0.236931 0.262571
700 2 0.0364852 0.221323 0.262609
701 2 0.00346793 0.221255 0.30426
702 1 0.0118636 0.236936 0.304397
703 2 0.0297773 0.236936 0.304387
704 1 0.0382119 0.221282 0.304354
705 1 0.00174832 0.221252 0.345907
706 2 0.0101528 0.236889 0.345951
707 1 0.0280563 0.236952 0.34589
708 2 0.0364966 0.221286 0.345814
709 2 0.00342497 0.221254 0.387679
710 1 0.0118826 0.236886 0.387638
711 2 0.0297549 0.236887 0.387618
712 1 0.0381566 0.221246 0.387617
713 1 0.00177619 0.221263 0.429107
714 2 0.010193 0.236853 0.429119
715 1 0.0280771 0.236846 0.429167
716 2 0.0364885 0.221218 0.429183
717 2 0.0034506 0.221308 0.470918
718 1 0.011882 0.236891 0.470957
719 2 0.0297732 0.236878 0.470889
720 1 0.0382129 0.221279 0.470848
721 1 0.00178553 0.221265 0.5126
722 2 0.0102232 0.236856 0.512539
723 1 0.028143 0.236848 0.512494
724 2 0.0365298 0.221234 0.512524
725 2 0.00347103 0.221148 0.55428
726 1 0.011864 0.236815 0.554231
727 2 0.0297745 0.23678 0.554173
728 1 0.0381582 0.221169 0.554182
729 1 0.00174054 0.221208 0.59588
730 2 0.0101897 0.236851 0.595935
731 1 0.0280603 0.236798 0.595921
732 2 0.0365211 0.221214 0.595838
733 2 0.00345459 0.221261 0.63763
734 1 0.01187 0.236902 0.637594
735 2 0.0297914 0.23688 0.637546
736 1 0.0382065 0.221216 0.637606
737 1 0.00181013 0.22124 0.679231
738 2 0.0101926 0.236884 0.679227
739 1 0.0281016 0.236873 0.67922
740 2 0.0365002 0.221247 0.679205
741 2 0.00344972 0.221274 0.720799
742 1 0.0119033 0.236872 0.720914
743 2 0.0297899 0.236841 0.720921
744 1 0.0382089 0.221227 0.720925
745 1 0.00175092 0.221177 0.762527
746 2 0.0101806 0.23681 0.762518
747 1 0.028076 0.236805 0.762579
748 2 0.0364747 0.221215 0.762561
749 2 0.00343224 0.221177 0.804263
750 1 0.0118267 0.236788 0.804288
751 2 0.0297366 0.236834 0.804347
752 1 0.0381868 0.221225 0.8043
753 1 0.00179055 0.221254 0.845891
754 2 0.0101864 0.236869 0.845843
755 1 0.0280957 0.236864 0.845913
756 2 0.0364921 0.221275 0.845954
757 2 0.00342066 0.221236 0.887567
758 1 0.0118044 0.236882 0.887609
759 2 0.0297189 0.236899 0.887567
760 1 0.0381791 0.221273 0.887504
761 1 0.00179167 0.221181 0.929014
762 2 0.0101968 0.236835 0.929113
763 1 0.0280892 0.236787 0.929079
764 2 0.0364942 0.221176 0.929126
765 2 0.00345123 0.221164 0.970753
766 1 0.0118684 0.236769 0.970715
767 2 0.02975 0.236778 0.970788
768 1 0.0382139 0.221185 0.970855
769 1 0.00176992 0.252505 0.012397
770 2 0.0101762 0.268166 0.0124079
771 1 0.0280998 0.268153 0.0123975
772 2 0.0364995 0.252538 0.0124303
773 2 0.00344762 0.252555 0.0541553
774 1 0.0118602 0.268171 0.0542381
775 2 0.029758 0.268171 0.0543485
776 1 0.038183 0.252576 0.0542945
777 1 0.00177917 0.252565 0.0960061
778 2 0.0101372 0.268192 0.095913
779 1 0.0280667 0.268132 0.0958742
780 2 0.0364639 0.252544 0.0959081
781 2 0.00348042 0.252459 0.137642
782 1 0.0118819 0.268121 0.13757
783 2 0.0297579 0.268139 0.137578
784 1 0.0381636 0.252482 0.137599
785 1 0.00180446 0.252564 0.179315
786 2 0.0102181 0.268171 0.179351
787 1 0.0281083 0.268121 0.179408
788 2 0.0365281 0.252521 0.179386
789 2 0.00348378 0.252511 0.220901
790 1 0.0118964 0.268081 0.220968
791 2 0.0297828 0.268127 0.220908
792 1 0.0382137 0.252507 0.220916
793 1 0.00174782 0.252496 0.262571
794 2 0.0101403 0.268103 0.262655
795 1 0.0280471 0.268114 0.262594
796 2 0.0364916 0.252521 0.262559
797 2 0.00339682 0.252547 0.304331
798 1 0.0118369 0.268161 0.304209
799 2 0.0297328 0.268171 0.304344
800 1 0.0382088 0.252537 0.304386
801 1 0.00172473 0.252557 0.346084
802 2 0.0101594 0.268184 0.346106
803 1 0.0280527 0.268182 0.346059
804 2 0.0364801 0.252572 0.345907
805 2 0.00347489 0.252509 0.387667
806 1 0.0118523 0.268156 0.38759
807 2 0.0297468 0.268161 0.38755
808 1 0.0381794 0.252485 0.387606
809 1 0.00180582 0.252484 0.429183
810 2 0.0102263 0.268097 0.429287
811 1 0.0281242 0.268108 0.429283
812 2 0.0364958 0.252492 0.429194
813 2 0.00344683 0.252511 0.470978
814 1 0.0118421 0.268144 0.471059
815 2 0.0297683 0.2681 0.470962
816 1 0.0381607 0.252502 0.470976
817 1 0.00178895 0.252477 0.512592
818 2 0.010195 0.26809 0.512634
819 1 0.0281172 0.268115 0.512478
820 2 0.036541 0.252494 0.512476
821 2 0.00346471 0.252417 0.554209
822 1 0.0118928 0.268061 0.554248
823 2 0.0298156 0.268006 0.554174
824 1 0.0382185 0.252395 0.554168
825 1 0.00174801 0.252493 0.595961
826 2 0.0101979 0.268085 0.595976
827 1 0.0281259 0.268112 0.596006
828 2 0.0364676 0.25247 0.595951
829 2 0.00342901 0.252482 0.637518
830 1 0.0118478 0.268117 0.637574
831 2 0.0297544 0.268099 0.637474
832 1 0.0382013 0.252471 0.637514
833 1 0.00177107 0.252456 0.679158
834 2 0.0101491 0.268112 0.679144
835 1 0.0280928 0.268075 0.679151
836 2 0.0364985 0.252461 0.679192
837 2 0.00341021 0.252489 0.72085
838 1 0.0118203 0.268129 0.720851
839 2 0.0297499 0.268061 0.720824
840 1 0.0381835 0.252453 0.720945
841 1 0.00171192 0.25244 0.762484
842 2 0.0101759 0.268086 0.762633
843 1 0.0280947 0.268089 0.762632
844 2 0.0364793 0.252416 0.762653
845 2 0.00343481 0.25241 0.804285
846 1 0.0118529 0.268055 0.804346
847 2 0.0297577 0.268102 0.804272
848 1 0.0381432 0.252485 0.804304
849 1 0.00172609 0.252503 0.845868
850 2 0.0101731 0.268093 0.845973
851 1 0.0280962 0.26812 0.845918
852 2 0.0364573 0.252505 0.846048
853 2 0.00341667 0.252513 0.887656
854 1 0.0118463 0.268137 0.88769
855 2 0.0297271 0.268152 0.887602
856 1 0.038127 0.252571 0.887506
857 1 0.00176023 0.252465 0.929152
858 2 0.0101681 0.26812 0.929227
859 1 0.0280864 0.268101 0.929182
860 2 0.0364974 0.252443 0.92913
861 2 0.00348697 0.252443 0.970757
862 1 0.011839 0.268087 0.970872
863 2 0.02973 0.268055 0.970851