ITEM: TIMESTEP
0
ITEM: NUMBER OF ATOMS
58368
ITEM: BOX BOUNDS xy xz yz pp pp pp
-3.9006362984379528e+01 4.3344360484379528e+01 0.0000000000000000e+00
-3.7533609150731806e+01 4.2542710950745985e+01 0.0000000000000000e+00
-3.2057278850357676e+01 4.5329282050343650e+01 0.0000000000000000e+00
ITEM: ATOMS id type xs ys zs
1 1 0.00239059 0.00251314 0.0124753
2 2 0.0111684 0.018146 0.0123878
3 1 0.0287339 0.0181097 0.0124761
4 2 0.037495 0.00246864 0.0124721
5 2 0.00244108 0.00252011 0.0541269
6 1 0.0111917 0.0181314 0.0541518
7 2 0.0287601 0.0181261 0.0540954
8 1 0.0375511 0.00249268 0.054075
9 1 0.00246249 0.00246387 0.095742
10 2 0.011249 0.0181297 0.0957903
11 1 0.0287631 0.018095 0.0956626
12 2 0.0375519 0.00246501 0.0956502
13 2 0.00246926 0.00242294 0.13738
14 1 0.0111953 0.0180664 0.137498
15 2 0.0287476 0.0181137 0.137516
16 1 0.0375355 0.0024617 0.137498
17 1 0.00246458 0.00245756 0.179079
18 2 0.0112312 0.0181183 0.179087
19 1 0.0288017 0.0180747 0.178995
20 2 0.0375282 0.00243609 0.178991
21 2 0.00241665 0.00247076 0.22071
22 1 0.0111963 0.018083 0.220802
23 2 0.0287421 0.0181016 0.220861
24 1 0.0375369 0.00245303 0.220937
25 1 0.00250184 0.00248166 0.262387
26 2 0.0112375 0.0181246 0.262357
27 1 0.0287913 0.0181416 0.262477
28 2 0.0375402 0.00251557 0.26241
29 2 0.00242198 0.00240245 0.304117
30 1 0.0111814 0.0180397 0.304221
31 2 0.0287333 0.0180529 0.30418
32 1 0.0375241 0.0024358 0.30419
33 1 0.0024732 0.00240419 0.345726
34 2 0.0112381 0.0180406 0.345699
35 1 0.0288069 0.0180651 0.345793
36 2 0.0375751 0.00241771 0.345685
37 2 0.00246606 0.00248685 0.387433
38 1 0.0112282 0.0181041 0.387545
39 2 0.028776 0.0180835 0.387513
40 1 0.037507 0.00245968 0.387377
41 1 0.00242239 0.002485 0.42909
42 2 0.0112018 0.0180875 0.429045
43 1 0.0287447 0.0181081 0.429151
44 2 0.0374913 0.00248565 0.429185
45 2 0.00245614 0.00251397 0.470812
46 1 0.0112211 0.0181344 0.470794
47 2 0.028751 0.0181169 0.470764
48 1 0.0374943 0.00247547 0.470884
49 1 0.00243693 0.00248943 0.512559
50 2 0.011204 0.0181124 0.51246
51 1 0.0287454 0.0181273 0.512508
52 2 0.0374949 0.00249464 0.512486
53 2 0.00240656 0.00252147 0.554049
54 1 0.0111805 0.0181146 0.554078
55 2 0.0287406 0.0181079 0.554152
56 1 0.0375235 0.0024886 0.554186
57 1 0.0023918 0.00253097 0.595767
58 2 0.0111898 0.0181405 0.595749
59 1 0.0287576 0.0181372 0.595796
60 2 0.0375338 0.00252283 0.595734
61 2 0.00237102 0.00251438 0.63739
62 1 0.0111292 0.0181449 0.637375
63 2 0.0286566 0.0181476 0.637419
64 1 0.0374408 0.00252843 0.637402
65 1 0.00237269 0.00255021 0.679004
66 2 0.0111652 0.0181704 0.67891
67 1 0.0287071 0.0181457 0.678892
68 2 0.0374799 0.00252812 0.679048
69 2 0.00242137 0.00249052 0.720845
70 1 0.0111762 0.0181083 0.7208
71 2 0.0287214 0.0181171 0.720696
72 1 0.0375107 0.00250008 0.720765
73 1 0.00242891 0.00248858 0.762431
74 2 0.0111886 0.0181132 0.762411
75 1 0.0287528 0.0181362 0.762379
76 2 0.037543 0.00251601 0.762296
77 2 0.00242223 0.00250628 0.804066
78 1 0.0111964 0.0181322 0.804064
79 2 0.0287277 0.0180932 0.804041
80 1 0.0375239 0.00249788 0.804036
81 1 0.00244934 0.00254646 0.845972
82 2 0.0112137 0.0181674 0.846002
83 1 0.0287579 0.0181587 0.845892
84 2 0.0375297 0.00252145 0.845836
85 2 0.00242825 0.00257247 0.887504
86 1 0.0111931 0.0181853 0.887528
87 2 0.0287285 0.0181696 0.887577
88 1 0.0375184 0.00254029 0.887537
89 1 0.00237851 0.00248903 0.929169
90 2 0.0111725 0.0180852 0.929277
91 1 0.0287071 0.018095 0.929241
92 2 0.0374686 0.00250663 0.92921
93 2 0.00239755 0.00251194 0.970955
94 1 0.0111665 0.0181384 0.970992
95 2 0.0287446 0.0181419 0.970906
96 1 0.0374817 0.00249812 0.970829
97 1 0.0024085 0.0337573 0.0123858
98 2 0.0112016 0.0493325 0.0123082
99 1 0.0287452 0.049364 0.0123184
100 2 0.0375281 0.0337516 0.0124404
101 2 0.00240815 0.033733 0.0540972
102 1 0.0111786 0.0493644 0.054108
103 2 0.0287249 0.0494026 0.0540789
104 1 0.0375407 0.0337566 0.0540321
105 1 0.00242998 0.0337064 0.0959507
106 2 0.0111984 0.0493382 0.0959109
107 1 0.0287405 0.0493656 0.095866
108 2 0.0375332 0.0337128 0.0958035
109 2 0.00244883 0.0337137 0.137613
110 1 0.0112411 0.0493212 0.137558
111 2 0.0287643 0.0493619 0.137439
112 1 0.037533 0.0337342 0.1375
113 1 0.00245457 0.0337497 0.179272
114 2 0.0112455 0.0493657 0.179163
115 1 0.0288027 0.0493224 0.179087
116 2 0.0376186 0.0336694 0.17904
117 2 0.00245235 0.0336968 0.220816
118 1 0.0111969 0.0493234 0.220649
119 2 0.028731 0.0493305 0.22078
120 1 0.0375029 0.0337147 0.220881
121 1 0.00245122 0.0337645 0.262297
122 2 0.0112204 0.0493718 0.262341
123 1 0.0287633 0.0494077 0.262384
124 2 0.0375438 0.0337711 0.262545
125 2 0.00242848 0.0336826 0.304119
126 1 0.0112079 0.0492981 0.304044
127 2 0.0287772 0.0492949 0.304064
128 1 0.0375369 0.0336659 0.304137
129 1 0.00243392 0.0336548 0.345715
130 2 0.0112324 0.0492939 0.345716
131 1 0.0287695 0.0493342 0.345841
132 2 0.0375332 0.0337033 0.345859
133 2 0.00245667 0.0337255 0.387532
134 1 0.0112481 0.0493639 0.387603
135 2 0.028803 0.0493304 0.387545
136 1 0.0375498 0.0336894 0.38758
137 1 0.00244717 0.0336977 0.429059
138 2 0.0112276 0.0493572 0.42907
139 1 0.0287346 0.0493529 0.429105
140 2 0.0374844 0.0337058 0.429149
141 2 0.00242437 0.033755 0.470673
142 1 0.0111686 0.0493871 0.470623
143 2 0.0287628 0.0493721 0.470612
144 1 0.0375217 0.0337448 0.470596
145 1 0.00244198 0.0337103 0.512429
146 2 0.01125 0.0493335 0.512236
147 1 0.0287733 0.0493438 0.512374
148 2 0.0375309 0.0337462 0.51244
149 2 0.00241754 0.0337633 0.55404
150 1 0.0111992 0.04937 0.554111
151 2 0.0287622 0.0493654 0.554046
152 1 0.0374985 0.0336974 0.554033
153 1 0.00246415 0.0337618 0.595634
154 2 0.0112162 0.0493901 0.59559
155 1 0.0287593 0.049373 0.595666
156 2 0.0375236 0.033762 0.595751
157 2 0.00233745 0.0337519 0.637433
158 1 0.0111418 0.0493488 0.637341
159 2 0.0286738 0.0493601 0.637405
160 1 0.0374552 0.0337428 0.637367
161 1 0.00239751 0.0337869 0.678968
162 2 0.0111266 0.0494237 0.679092
163 1 0.0286982 0.0494184 0.678864
164 2 0.0374626 0.0337675 0.678925
165 2 0.00240848 0.0337735 0.720735
166 1 0.0112053 0.0493882 0.720718
167 2 0.0287246 0.0493721 0.720699
168 1 0.0374984 0.0337586 0.720695
169 1 0.00240359 0.0337249 0.762478
170 2 0.0111654 0.0493465 0.762487
171 1 0.0287136 0.0493307 0.762315
172 2 0.0375252 0.0337636 0.762303
173 2 0.00245794 0.0337401 0.80407
174 1 0.0112416 0.049375 0.804038
175 2 0.028777 0.0494065 0.803971
176 1 0.0374873 0.0337246 0.804085
177 1 0.00245232 0.0337878 0.846009
178 2 0.0111977 0.0494078 0.845958
179 1 0.0287495 0.0493999 0.845769
180 2 0.037526 0.0337726 0.845828
181 2 0.00241228 0.0337911 0.887642
182 1 0.0111779 0.049431 0.887559
183 2 0.0287035 0.0494536 0.887546
184 1 0.0374849 0.0338043 0.88753
185 1 0.00240441 0.0337303 0.929152
186 2 0.0111633 0.0493249 0.929183
187 1 0.0287393 0.0493731 0.929218
188 2 0.0375149 0.0337397 0.929263
189 2 0.00243811 0.0337637 0.970967
190 1 0.0112066 0.0494013 0.970908
191 2 0.0287145 0.0493868 0.970848
192 1 0.0375325 0.0337724 0.970814
193 1 0.00242826 0.0649613 0.0123501
194 2 0.011218 0.0805576 0.0123551
195 1 0.0287647 0.0806228 0.0123871
196 2 0.0375245 0.065009 0.0124572
197 2 0.00243527 0.0650171 0.0542284
198 1 0.0112081 0.0806255 0.0542521
199 2 0.0287467 0.0806168 0.054212
200 1 0.0375182 0.0650251 0.0541261
201 1 0.00246154 0.0649565 0.095804
202 2 0.0112157 0.0806021 0.095843
203 1 0.0287822 0.0805924 0.09574
204 2 0.0375357 0.0649891 0.0958003
205 2 0.00245892 0.0649724 0.137573
206 1 0.0112318 0.0806127 0.137586
207 2 0.0287431 0.0806078 0.137351
208 1 0.0375315 0.0649977 0.13732
209 1 0.00245647 0.0649851 0.179258
210 2 0.0112255 0.0806233 0.179144
211 1 0.0287719 0.0805776 0.179146
212 2 0.0375481 0.0649348 0.179077
213 2 0.00241838 0.0649569 0.220687
214 1 0.0112315 0.080546 0.220753
215 2 0.0287694 0.0805763 0.22078
216 1 0.0375219 0.064971 0.220834
217 1 0.00247833 0.0649933 0.26241
218 2 0.0112071 0.0806251 0.262419
219 1 0.028782 0.080659 0.262481
220 2 0.037547 0.0650224 0.262428
221 2 0.00243806 0.0649296 0.304028
222 1 0.0111855 0.0805685 0.304259
223 2 0.0287087 0.0805423 0.304208
224 1 0.0375022 0.0649433 0.304193
225 1 0.00246713 0.064938 0.345703
226 2 0.0112316 0.0806066 0.345768
227 1 0.0287947 0.0806352 0.345804
228 2 0.0375401 0.0649874 0.345816
229 2 0.00245861 0.0649879 0.387515
230 1 0.0112214 0.0806013 0.38752
231 2 0.0287847 0.080605 0.387548
232 1 0.0375606 0.0649725 0.38748
233 1 0.00239955 0.0649534 0.429064
234 2 0.0111691 0.0806119 0.429117
235 1 0.0287206 0.080579 0.429178
236 2 0.0374956 0.0649627 0.429164
237 2 0.00241739 0.0649775 0.470675
238 1 0.0111862 0.0805907 0.470698
239 2 0.0287506 0.0806214 0.470656
240 1 0.037535 0.0650119 0.470693
241 1 0.00246931 0.0649683 0.512325
242 2 0.0111897 0.0806304 0.512397
243 1 0.0287421 0.0805885 0.512427
244 2 0.0375409 0.0649696 0.512415
245 2 0.00243831 0.0650139 0.554215
246 1 0.0112135 0.0806308 0.554254
247 2 0.0287624 0.0806414 0.554155
248 1 0.0375128 0.0650146 0.55415
249 1 0.00240309 0.0649776 0.595706
250 2 0.0111621 0.0806281 0.595664
251 1 0.0287308 0.0805736 0.595676
252 2 0.0375074 0.0649773 0.59567
253 2 0.00235887 0.064965 0.637248
254 1 0.0111211 0.0806147 0.637296
255 2 0.0286704 0.0806256 0.637395
256 1 0.0374534 0.064994 0.637399
257 1 0.0024154 0.0650973 0.679174
258 2 0.0111706 0.0807014 0.679066
259 1 0.0287139 0.0806689 0.678956
260 2 0.0374736 0.0650368 0.678932
261 2 0.00242643 0.0649746 0.720827
262 1 0.0112022 0.0806228 0.720871
263 2 0.0287699 0.0806444 0.720905
264 1 0.0375138 0.0649879 0.720805
265 1 0.00242175 0.064967 0.762546
266 2 0.0112015 0.0806231 0.762399
267 1 0.0287411 0.0806157 0.762348
268 2 0.0374936 0.0649798 0.762352
269 2 0.00242676 0.0649909 0.804079
270 1 0.0111773 0.0806499 0.804037
271 2 0.0287347 0.0806403 0.804026
272 1 0.0375335 0.0650398 0.803974
273 1 0.00242558 0.0650322 0.845951
274 2 0.0112 0.0806683 0.845862
275 1 0.028742 0.0806245 0.845688
276 2 0.0375191 0.0650133 0.845589
277 2 0.00238583 0.0650424 0.887502
278 1 0.0111688 0.080627 0.887468
279 2 0.0287058 0.0806365 0.88746
280 1 0.0374663 0.0650346 0.887563
281 1 0.00241205 0.0649708 0.929217
282 2 0.0112041 0.0805945 0.929283
283 1 0.0287478 0.0806091 0.929167
284 2 0.0374683 0.0649912 0.929147
285 2 0.00241113 0.0650301 0.970864
286 1 0.0111778 0.0806563 0.970896
287 2 0.0287394 0.0806535 0.970804
288 1 0.0374994 0.065015 0.970636
289 1 0.00245637 0.0962122 0.0124187
290 2 0.0112134 0.111861 0.0125653
291 1 0.0287851 0.111859 0.0126043
292 2 0.0375399 0.0962341 0.0124888
293 2 0.00243842 0.0962422 0.054193
294 1 0.0112347 0.111877 0.0542504
295 2 0.0287485 0.111889 0.0542213
296 1 0.037513 0.0962543 0.0542252
297 1 0.00244957 0.096213 0.0959588
298 2 0.0112183 0.11185 0.0958646
299 1 0.0287731 0.111851 0.0957879
300 2 0.0375326 0.0962299 0.095736
301 2 0.00246036 0.0962354 0.13757
302 1 0.0111838 0.11184 0.137406
303 2 0.0287026 0.111874 0.137268
304 1 0.0374906 0.0962432 0.137251
305 1 0.00244203 0.0962522 0.179088
306 2 0.0112157 0.11187 0.179121
307 1 0.0287906 0.111817 0.179113
308 2 0.0375627 0.0962065 0.179126
309 2 0.00245927 0.0961902 0.220836
310 1 0.0112081 0.111818 0.220868
311 2 0.0287693 0.111858 0.220789
312 1 0.0375195 0.0962279 0.22083
313 1 0.00245328 0.0962546 0.262453
314 2 0.011236 0.111858 0.262526
315 1 0.02876 0.11189 0.26257
316 2 0.0375434 0.0962781 0.262594
317 2 0.00240367 0.0961617 0.304255
318 1 0.0111725 0.111792 0.304196
319 2 0.0287316 0.111789 0.304251
320 1 0.0374828 0.0961389 0.304196
321 1 0.00244503 0.0962199 0.345834
322 2 0.0112101 0.111844 0.345808
323 1 0.0287756 0.111849 0.345871
324 2 0.0375593 0.0962205 0.345908
325 2 0.00247198 0.0962178 0.387482
326 1 0.0112385 0.111817 0.387503
327 2 0.0287656 0.111829 0.387558
328 1 0.0375561 0.0962227 0.387546
329 1 0.00242184 0.0962481 0.429143
330 2 0.0112076 0.111851 0.429143
331 1 0.0287282 0.11187 0.429056
332 2 0.0375177 0.0962336 0.429143
333 2 0.0024103 0.0962195 0.470799
334 1 0.0112349 0.111837 0.470879
335 2 0.0287554 0.111873 0.470891
336 1 0.0375299 0.0962433 0.470717
337 1 0.00244853 0.0962651 0.512383
338 2 0.0112161 0.111902 0.512442
339 1 0.0287728 0.111887 0.512527
340 2 0.0375109 0.0962387 0.512546
341 2 0.00243107 0.0962887 0.554193
342 1 0.0112193 0.111901 0.554235
343 2 0.0287613 0.11189 0.554228
344 1 0.0375301 0.0962472 0.554102
345 1 0.00240743 0.0962412 0.59573
346 2 0.0111978 0.111857 0.595824
347 1 0.0287591 0.111874 0.595895
348 2 0.0375123 0.0962238 0.59582
349 2 0.00235304 0.0962596 0.637445
350 1 0.0111333 0.111872 0.63748
351 2 0.0286907 0.11188 0.63748
352 1 0.0374476 0.0962446 0.637509
353 1 0.00239905 0.0963143 0.679271
354 2 0.0111563 0.111928 0.679191
355 1 0.0286866 0.111909 0.67909
356 2 0.0374802 0.0962637 0.67903
357 2 0.00239964 0.0962405 0.720873
358 1 0.0111869 0.111859 0.720858
359 2 0.0287222 0.111871 0.720814
360 1 0.0375352 0.0962582 0.720845
361 1 0.00244389 0.0962236 0.762468
362 2 0.0111653 0.111862 0.76248
363 1 0.0287453 0.111859 0.762402
364 2 0.0375007 0.0962441 0.762349
365 2 0.00240186 0.096259 0.804094
366 1 0.0112145 0.111872 0.804048
367 2 0.028785 0.111881 0.804062
368 1 0.0375244 0.0962399 0.804067
369 1 0.00244829 0.0963095 0.845948
370 2 0.0112224 0.11196 0.845872
371 1 0.0287632 0.111878 0.845769
372 2 0.0375399 0.0962448 0.84566
373 2 0.00241954 0.0962643 0.887479
374 1 0.0111742 0.111924 0.887428
375 2 0.0287112 0.111923 0.887283
376 1 0.0374674 0.0962663 0.887341
377 1 0.00242465 0.0962474 0.929212
378 2 0.0112166 0.111861 0.929201
379 1 0.0287481 0.111884 0.929162
380 2 0.0375337 0.0962368 0.929213
381 2 0.00242292 0.0962618 0.970857
382 1 0.0112039 0.111879 0.970837
383 2 0.0287659 0.111897 0.970857
384 1 0.0375344 0.0962807 0.97074
385 1 0.0024556 0.127522 0.0124686
386 2 0.0112815 0.143103 0.0125004
387 1 0.0288195 0.143132 0.0125247
388 2 0.0375622 0.127496 0.012552
389 2 0.00244421 0.127512 0.0542905
390 1 0.0112083 0.143142 0.0542986
391 2 0.0287433 0.143162 0.0541956
392 1 0.0375028 0.127525 0.0541524
393 1 0.00247313 0.127514 0.0959016
394 2 0.0112397 0.143128 0.0957912
395 1 0.0287817 0.143135 0.0957944
396 2 0.0375374 0.127461 0.0957474
397 2 0.00242799 0.127479 0.13738
398 1 0.0112058 0.143126 0.137381
399 2 0.028746 0.143116 0.137444
400 1 0.0374907 0.127484 0.137352
401 1 0.0024947 0.127486 0.179238
402 2 0.0112497 0.143102 0.179132
403 1 0.028786 0.143098 0.179039
404 2 0.0375646 0.127432 0.179124
405 2 0.00243656 0.127435 0.220934
406 1 0.0112248 0.143079 0.220863
407 2 0.0287622 0.143081 0.220742
408 1 0.0375624 0.127476 0.22074
409 1 0.00243676 0.127476 0.262514
410 2 0.0112013 0.14309 0.262473
411 1 0.028739 0.143125 0.262561
412 2 0.0375415 0.127524 0.262513
413 2 0.00241631 0.127417 0.304169
414 1 0.0112129 0.143053 0.304118
415 2 0.0287644 0.143047 0.304101
416 1 0.0375224 0.127398 0.304174
417 1 0.00244563 0.127487 0.345754
418 2 0.0112425 0.143111 0.345757
419 1 0.0287731 0.143127 0.345821
420 2 0.0375355 0.127466 0.345896
421 2 0.00247777 0.127447 0.387601
422 1 0.0112353 0.143083 0.387774
423 2 0.0287665 0.143106 0.38761
424 1 0.0375428 0.127469 0.387555
425 1 0.00238941 0.127485 0.429192
426 2 0.0111689 0.143102 0.429242
427 1 0.0287203 0.143132 0.429213
428 2 0.0374627 0.12753 0.429187
429 2 0.0024213 0.127462 0.470791
430 1 0.0111745 0.143115 0.470842
431 2 0.0287393 0.143112 0.470754
432 1 0.0375209 0.127515 0.47086
433 1 0.00243645 0.127513 0.51245
434 2 0.0112435 0.143116 0.512351
435 1 0.028804 0.143112 0.51242
436 2 0.0375422 0.127501 0.512513
437 2 0.0024483 0.127556 0.554185
438 1 0.0111928 0.143184 0.554128
439 2 0.0287366 0.143163 0.554084
440 1 0.0375087 0.127553 0.554103
441 1 0.00239603 0.127468 0.595971
442 2 0.0111672 0.143121 0.595983
443 1 0.0287141 0.143105 0.595901
444 2 0.0375002 0.127505 0.595916
445 2 0.00240214 0.127499 0.637456
446 1 0.0111276 0.14313 0.637418
447 2 0.0286706 0.143153 0.637449
448 1 0.0374573 0.127533 0.637463
449 1 0.00239215 0.127588 0.67925
450 2 0.0111548 0.143192 0.679329
451 1 0.0286888 0.143171 0.67927
452 2 0.0374487 0.127545 0.679155
453 2 0.00241727 0.127509 0.720883
454 1 0.0112276 0.143114 0.720855
455 2 0.0287539 0.143123 0.720845
456 1 0.0375259 0.127506 0.720879
457 1 0.00238373 0.127496 0.76242
458 2 0.0111773 0.143111 0.762495
459 1 0.0287305 0.143122 0.762381
460 2 0.0375066 0.127477 0.762447
461 2 0.0024317 0.127511 0.804074
462 1 0.0112043 0.143147 0.804117
463 2 0.0287754 0.143139 0.804132
464 1 0.0375439 0.127521 0.804055
465 1 0.00246358 0.127617 0.845878
466 2 0.011241 0.143229 0.845796
467 1 0.0287457 0.143195 0.845737
468 2 0.0375068 0.127546 0.84573
469 2 0.00241608 0.12753 0.887482
470 1 0.0112037 0.143141 0.887415
471 2 0.0287636 0.143146 0.887445
472 1 0.0375192 0.127539 0.887276
473 1 0.00246668 0.127497 0.929341
474 2 0.0112144 0.143147 0.929366
475 1 0.0287458 0.143138 0.929122
476 2 0.0375364 0.127519 0.929179
477 2 0.00245365 0.127511 0.970923
478 1 0.0111948 0.143128 0.970878
479 2 0.0287278 0.143119 0.970875
480 1 0.0375452 0.127519 0.970888
481 1 0.00250075 0.158729 0.012527
482 2 0.0112458 0.174358 0.0126177
483 1 0.0287819 0.17436 0.0125856
484 2 0.037561 0.158755 0.0125797
485 2 0.00241923 0.15877 0.0542408
486 1 0.0111978 0.174361 0.0542148
487 2 0.0287343 0.17439 0.0541637
488 1 0.03751 0.158773 0.0541956
489 1 0.00243479 0.158749 0.0958164
490 2 0.0112191 0.174373 0.0957388
491 1 0.0287659 0.174373 0.0957404
492 2 0.0375479 0.158735 0.0956947
493 2 0.00244805 0.158748 0.137483
494 1 0.0111815 0.174379 0.137523
495 2 0.0287164 0.174351 0.137455
496 1 0.03753 0.15875 0.137467
497 1 0.00244819 0.158703 0.179153
498 2 0.011209 0.174334 0.1791
499 1 0.0287667 0.174308 0.179088
500 2 0.0375754 0.158733 0.179079
501 2 0.00243217 0.15869 0.220851
502 1 0.0112147 0.174342 0.22077
503 2 0.0287621 0.174331 0.22073
504 1 0.0375269 0.158718 0.220687
505 1 0.00242511 0.158762 0.262475
506 2 0.0111863 0.174397 0.262554
507 1 0.0287008 0.174385 0.262566
508 2 0.0374875 0.158769 0.262564
509 2 0.00244817 0.158659 0.304158
510 1 0.0112002 0.174284 0.304247
511 2 0.0287505 0.174311 0.304069
512 1 0.0375389 0.158669 0.304102
513 1 0.00243965 0.158736 0.345816
514 2 0.0112202 0.174372 0.345733
515 1 0.0287304 0.174361 0.345736
516 2 0.0375356 0.158738 0.345761
517 2 0.00245808 0.158715 0.387711
518 1 0.0112358 0.174368 0.3875
519 2 0.0287724 0.174355 0.38745
520 1 0.0375483 0.158748 0.387538
521 1 0.00244133 0.158752 0.429252
522 2 0.0111962 0.174396 0.429244
523 1 0.0287498 0.17438 0.429192
524 2 0.0374808 0.158731 0.429165
525 2 0.00240539 0.158703 0.470848
526 1 0.0111757 0.17436 0.470847
527 2 0.0287212 0.174399 0.470842
528 1 0.037478 0.158779 0.470816
529 1 0.00244916 0.158758 0.512357
530 2 0.0112173 0.17436 0.512453
531 1 0.0287618 0.174371 0.5126
532 2 0.0375604 0.158755 0.51254
533 2 0.00243865 0.158824 0.554164
534 1 0.0112264 0.174439 0.554131
535 2 0.0287748 0.174418 0.554097
536 1 0.0375473 0.158776 0.554201
537 1 0.00239579 0.158738 0.595853
538 2 0.0111679 0.174375 0.59583
539 1 0.0287098 0.174361 0.595822
540 2 0.037468 0.158739 0.595858
541 2 0.00236622 0.158767 0.637417
542 1 0.0111482 0.174371 0.637467
543 2 0.0286718 0.174374 0.637627
544 1 0.0374631 0.15875 0.637571
545 1 0.0023393 0.158812 0.679318
546 2 0.0111074 0.174429 0.679285
547 1 0.0286731 0.174357 0.67925
548 2 0.0374451 0.158778 0.67928
549 2 0.00244379 0.158729 0.72096
550 1 0.0111962 0.174384 0.720991
551 2 0.028709 0.174382 0.720986
552 1 0.0374913 0.158757 0.720934
553 1 0.00241905 0.158716 0.762501
554 2 0.011189 0.174354 0.762467
555 1 0.0287393 0.174346 0.762514
556 2 0.0375208 0.158719 0.762399
557 2 0.00239334 0.158738 0.804187
558 1 0.0111586 0.174331 0.804251
559 2 0.0287154 0.174353 0.804189
560 1 0.0375308 0.158752 0.80425
561 1 0.00243678 0.158834 0.845868
562 2 0.01119 0.174452 0.845755
563 1 0.0287481 0.174436 0.845792
564 2 0.0375286 0.158779 0.845705
565 2 0.00245117 0.158808 0.887491
566 1 0.0112144 0.174415 0.887514
567 2 0.0287687 0.17443 0.887433
568 1 0.0375238 0.158788 0.887441
569 1 0.00243215 0.158765 0.929263
570 2 0.0112154 0.174408 0.929255
571 1 0.0287498 0.174407 0.929135
572 2 0.0375003 0.158773 0.929038
573 2 0.00240351 0.158737 0.97102
574 1 0.0111789 0.174351 0.97097
575 2 0.0287289 0.174378 0.970938
576 1 0.0375028 0.158767 0.970904
577 1 0.00246187 0.190013 0.0125033
578 2 0.0112502 0.205612 0.0124893
579 1 0.0287973 0.205598 0.0124965
580 2 0.037585 0.18997 0.0124696
581 2 0.00237698 0.19 0.0541838
582 1 0.011174 0.205631 0.0542314
583 2 0.0287373 0.205595 0.0542619
584 1 0.0375282 0.190003 0.054263
585 1 0.0024496 0.189987 0.0957588
586 2 0.0112328 0.205623 0.0957727
587 1 0.028785 0.205623 0.0958222
588 2 0.0375663 0.189991 0.0957633
589 2 0.00240641 0.190001 0.137469
590 1 0.0112139 0.205603 0.137391
591 2 0.0287434 0.205574 0.137354
592 1 0.0375293 0.189952 0.137448
593 1 0.00247527 0.189969 0.179073
594 2 0.0112299 0.205601 0.178942
595 1 0.0288026 0.205575 0.178972
596 2 0.0375566 0.189945 0.179045
597 2 0.00243564 0.189992 0.220841
598 1 0.0112227 0.2056 0.220844
599 2 0.0287931 0.205605 0.220738
600 1 0.0375437 0.189977 0.220663
601 1 0.00240642 0.189979 0.26248
602 2 0.0112123 0.205615 0.262392
603 1 0.0287299 0.205598 0.262415
604 2 0.037502 0.189978 0.262424
605 2 0.00239879 0.189933 0.30419
606 1 0.011171 0.205548 0.304096
607 2 0.0287177 0.205583 0.304104
608 1 0.0374912 0.189937 0.304093
609 1 0.00245401 0.189988 0.34583
610 2 0.0112077 0.20561 0.345888
611 1 0.0287501 0.20559 0.345901
612 2 0.0375196 0.189957 0.345872
613 2 0.00243906 0.189965 0.387409
614 1 0.0112434 0.20561 0.387354
615 2 0.0287958 0.205587 0.387363
616 1 0.0375449 0.189964 0.387484
617 1 0.0024184 0.190035 0.429163
618 2 0.0112303 0.205653 0.429184
619 1 0.0287575 0.205642 0.429224
620 2 0.0375012 0.189995 0.429209
621 2 0.00242922 0.189999 0.470794
622 1 0.011198 0.205644 0.470796
623 2 0.0287461 0.205644 0.470728
624 1 0.0375037 0.190009 0.470798
625 1 0.00245363 0.189976 0.512353
626 2 0.011225 0.205597 0.512508
627 1 0.0287713 0.205632 0.512647
628 2 0.0375373 0.189992 0.512582
629 2 0.00241005 0.190072 0.554122
630 1 0.0112168 0.205677 0.554228
631 2 0.0287675 0.205647 0.554205
632 1 0.0375435 0.190042 0.554096
633 1 0.00238227 0.189966 0.595939
634 2 0.0111526 0.205584 0.59598
635 1 0.0287061 0.205622 0.595922
636 2 0.037494 0.189992 0.595971
637 2 0.00236191 0.189992 0.637562
638 1 0.0111519 0.205632 0.637482
639 2 0.0287066 0.205615 0.637534
640 1 0.0374478 0.189979 0.637596
641 1 0.00237965 0.190035 0.679195
642 2 0.0111921 0.205609 0.679241
643 1 0.028724 0.205636 0.679311
644 2 0.0374807 0.189954 0.679232
645 2 0.00243614 0.190014 0.720916
646 1 0.0111915 0.205627 0.720918
647 2 0.0287357 0.205677 0.720905
648 1 0.0375044 0.190035 0.72092
649 1 0.00242461 0.189989 0.762441
650 2 0.011205 0.205634 0.762459
651 1 0.0287521 0.205596 0.762479
652 2 0.0375182 0.189967 0.762475
653 2 0.00243451 0.18998 0.804241
654 1 0.011203 0.205628 0.804252
655 2 0.0287088 0.205631 0.804195
656 1 0.0374988 0.189996 0.804232
657 1 0.00244988 0.190077 0.845829
658 2 0.0112091 0.205688 0.845898
659 1 0.0287488 0.205643 0.845898
660 2 0.037556 0.190031 0.845832
661 2 0.00244643 0.190039 0.88757
662 1 0.0112395 0.205639 0.887472
663 2 0.0287712 0.205661 0.887424
664 1 0.0375156 0.190038 0.887398
665 1 0.00240989 0.190029 0.929313
666 2 0.0111993 0.205672 0.929223
667 1 0.0287602 0.205643 0.929218
668 2 0.0375179 0.190021 0.929215
669 2 0.00240189 0.189991 0.970854
670 1 0.0112033 0.205596 0.970789
671 2 0.02876 0.205602 0.970792
672 1 0.0375456 0.189974 0.970841
673 1 0.00248677 0.22122 0.0124597
674 2 0.0112534 0.23686 0.0124517
675 1 0.0288194 0.236876 0.0124264
676 2 0.0375712 0.221256 0.0125186
677 2 0.0024244 0.221268 0.0542142
678 1 0.0112035 0.236883 0.0541503
679 2 0.0287293 0.236873 0.0540396
680 1 0.0374996 0.221227 0.0541208
681 1 0.00246723 0.221248 0.0957002
682 2 0.0112422 0.23688 0.095754
683 1 0.0287813 0.236866 0.0957888
684 2 0.0375585 0.221227 0.0958665
685 2 0.00245633 0.221202 0.137256
686 1 0.0112183 0.236841 0.137372
687 2 0.0287598 0.236825 0.137434
688 1 0.0375624 0.221198 0.137368
689 1 0.00246213 0.221213 0.179079
690 2 0.011234 0.236841 0.179051
691 1 0.0287623 0.236822 0.179107
692 2 0.0375537 0.221194 0.178966
693 2 0.00246485 0.221208 0.220842
694 1 0.0112609 0.236841 0.220758
695 2 0.0287981 0.236835 0.220644
696 1 0.0375714 0.221202 0.220752
697 1 0.00245949 0.221228 0.26243
698 2 0.0112397 0.236831 0.262452
699 1 0.0287804 0.236856 0.262525
700 2 0.0374986 0.221221 0.262461
701 2 0.00240685 0.2212 0.304072
702 1 0.0112033 0.236818 0.304145
703 2 0.0288047 0.236858 0.304245
704 1 0.0375242 0.2212 0.304155
705 1 0.00244898 0.221245 0.345949
706 2 0.011246 0.236876 0.345884
707 1 0.0287814 0.236881 0.345777
708 2 0.037523 0.221242 0.345819
709 2 0.00247322 0.221232 0.387481
710 1 0.0112181 0.236873 0.387439
711 2 0.0287539 0.236882 0.387336
712 1 0.0375068 0.221247 0.38741
713 1 0.00245478 0.221271 0.429061
714 2 0.011237 0.236905 0.429088
715 1 0.0287652 0.236873 0.429115
716 2 0.0375224 0.221257 0.429151
717 2 0.00245266 0.221267 0.470881
718 1 0.0112314 0.236875 0.470874
719 2 0.028761 0.236913 0.470889
720 1 0.0375244 0.221266 0.470775
721 1 0.0024796 0.221239 0.51257
722 2 0.0112474 0.236888 0.512641
723 1 0.0287861 0.236867 0.512599
724 2 0.0376034 0.221238 0.512612
725 2 0.00242402 0.221297 0.554246
726 1 0.0111828 0.236925 0.55424
727 2 0.0287468 0.2369 0.554309
728 1 0.037525 0.221264 0.55427
729 1 0.00235621 0.221219 0.595939
730 2 0.0111616 0.236836 0.595869
731 1 0.0287198 0.236862 0.595832
732 2 0.0374831 0.221247 0.595835
733 2 0.00236232 0.221281 0.637553
734 1 0.0111581 0.236889 0.637524
735 2 0.0286808 0.236876 0.637463
736 1 0.0374652 0.221283 0.637497
737 1 0.0024077 0.221245 0.679287
738 2 0.0111748 0.236885 0.679178
739 1 0.0287379 0.236883 0.679102
740 2 0.0374828 0.221241 0.679188
741 2 0.00237502 0.221253 0.720907
742 1 0.011175 0.23686 0.720778
743 2 0.0287154 0.236892 0.720751
744 1 0.0374934 0.221282 0.720807
745 1 0.00241179 0.221235 0.762602
746 2 0.0111904 0.23684 0.762592
747 1 0.0287333 0.236844 0.762598
748 2 0.0375202 0.221223 0.762485
749 2 0.00243708 0.221237 0.804326
750 1 0.0111513 0.236899 0.804447
751 2 0.0286989 0.236899 0.804289
752 1 0.0374672 0.221278 0.804185
753 1 0.00245431 0.221301 0.845799
754 2 0.0112063 0.236936 0.845877
755 1 0.0287674 0.236943 0.845905
756 2 0.0375228 0.221281 0.845858
757 2 0.0024337 0.221266 0.887494
758 1 0.0112119 0.236908 0.887454
759 2 0.0287723 0.236912 0.887541
760 1 0.0375525 0.221273 0.887564
761 1 0.00239777 0.221264 0.929159
762 2 0.0111818 0.236846 0.92917
763 1 0.0287516 0.236867 0.929227
764 2 0.0375365 0.221259 0.929249
765 2 0.00241594 0.221235 0.970773
766 1 0.0111963 0.236822 0.970832
767 2 0.0287261 0.236853 0.970819
768 1 0.0375515 0.221254 0.970763
769 1 0.00249331 0.252495 0.0125509
770 2 0.0112535 0.268121 0.0125777
771 1 0.0287793 0.268136 0.0125038
772 2 0.0375368 0.252527 0.012438
773 2 0.00238497 0.252506 0.0542166
774 1 0.0111908 0.268087 0.0541608
775 2 0.028722 0.268078 0.0541746
776 1 0.037516 0.252468 0.0541538
777 1 0.00245784 0.252489 0.0957571
778 2 0.0112108 0.268133 0.0957815
779 1 0.0287778 0.268105 0.0958367
780 2 0.0375683 0.252469 0.0958756
781 2 0.00244569 0.25249 0.137403
782 1 0.01121 0.268104 0.137447
783 2 0.0287537 0.268106 0.137505
784 1 0.0375302 0.252469 0.137437
785 1 0.00247093 0.252466 0.179205
786 2 0.0112276 0.268087 0.17915
787 1 0.0287347 0.268087 0.179087
788 2 0.0375433 0.252461 0.179103
789 2 0.00247786 0.252452 0.22079
790 1 0.0112613 0.268071 0.22089
791 2 0.0287979 0.268086 0.22078
792 1 0.037587 0.252437 0.22065
793 1 0.00247427 0.252417 0.262568
794 2 0.0112265 0.268086 0.262471
795 1 0.0288025 0.268074 0.262385
796 2 0.0375693 0.252467 0.262408
797 2 0.00246444 0.252453 0.304199
798 1 0.0112386 0.268066 0.304191
799 2 0.0288013 0.268086 0.304246
800 1 0.0375498 0.252463 0.304233
801 1 0.00243693 0.252496 0.34581
802 2 0.0111971 0.268132 0.345822
803 1 0.0287395 0.268134 0.345732
804 2 0.0375259 0.252518 0.345683
805 2 0.00242713 0.252486 0.387559
806 1 0.0112168 0.268152 0.387489
807 2 0.0287736 0.268134 0.38729
808 1 0.0375208 0.252493 0.387345
809 1 0.0024483 0.2525 0.429117
810 2 0.0112147 0.268152 0.429155
811 1 0.0287496 0.268086 0.429165
812 2 0.0375261 0.252487 0.429104
813 2 0.00246526 0.252501 0.470875
814 1 0.0111794 0.268129 0.470948
815 2 0.0287368 0.268121 0.470943
816 1 0.0375372 0.25252 0.470977
817 1 0.00242371 0.252523 0.512631
818 2 0.0112251 0.268134 0.512631
819 1 0.0287675 0.268172 0.512639
820 2 0.0375488 0.25252 0.512676
821 2 0.0024349 0.252578 0.55431
822 1 0.0112026 0.268197 0.554385
823 2 0.0287406 0.268126 0.554316
824 1 0.0375163 0.25251 0.554234
825 1 0.00240267 0.252475 0.595947
826 2 0.0112122 0.26811 0.595874
827 1 0.028765 0.268099 0.595842
828 2 0.0374984 0.252499 0.595951
829 2 0.00237652 0.252524 0.637597
830 1 0.0112116 0.268118 0.637566
831 2 0.0286957 0.268107 0.637562
832 1 0.0374528 0.252479 0.637476
833 1 0.00237682 0.252527 0.679174
834 2 0.011164 0.268152 0.679175
835 1 0.0287092 0.268143 0.67903
836 2 0.0375017 0.252483 0.679019
837 2 0.00241031 0.252477 0.720783
838 1 0.0111758 0.268129 0.720774
839 2 0.0287413 0.268147 0.720705
840 1 0.0374987 0.252525 0.720748
841 1 0.00242654 0.252475 0.762606
842 2 0.0112074 0.268089 0.762404
843 1 0.0287452 0.268125 0.762463
844 2 0.0375281 0.252496 0.762621
845 2 0.00238657 0.252487 0.804378
846 1 0.0111764 0.268138 0.804258
847 2 0.0287233 0.268152 0.804315
848 1 0.0374812 0.252524 0.804252
849 1 0.00246122 0.252563 0.845892
850 2 0.0112278 0.268216 0.845914
851 1 0.0287885 0.268161 0.845905
852 2 0.0375247 0.252556 0.845891
853 2 0.00245406 0.252503 0.887524
854 1 0.0111929 0.268155 0.887585
855 2 0.0287708 0.268195 0.887592
856 1 0.0375341 0.252551 0.887627
857 1 0.00240552 0.25249 0.929248
858 2 0.0112224 0.268127 0.929331
859 1 0.0287526 0.268122 0.929313
860 2 0.0375516 0.252498 0.929279
861 2 0.0024401 0.252476 0.970788
862 1 0.0111972 0.268129 0.970927
863 2 0.0287566 0.268109 0.970898